,Primer_Name_L,Seq_L,Amplicon,Primer_Length_L,Tm_L,Delta Tm_L,GC_Content_L,Length_Longest_Homopolymer_L,Percent_Homopolymer_L,exp,flank_L,Primer_Name_R,Seq_R,Primer_Length_R,Tm_R,Delta Tm_R,GC_Content_R,Length_Longest_Homopolymer_R,Percent_Homopolymer_R,flank_R,sample_id,sample_name,species,strain,n_reads
93314,45_F,ACTTGCCAAGTTTCATATGT,45,20,47.24138946362797,0.9392077240420776,35.0,3,0.15,Ba_5_V3,F,45_R,TAATAAGGATGGTCACTCTA,20,43.71739805823681,2.584783681349066,35.0,2,0.0,R,S4,A0605,Ba,,8514
93315,45_F,ACTTGCCAAGTTTCATATGT,45,20,47.24138946362797,0.9392077240420776,35.0,3,0.15,Ba_5_V3,F,45_R,TAATAAGGATGGTCACTCTA,20,43.71739805823681,2.584783681349066,35.0,2,0.0,R,S5,A0615,Ba,,70
93316,45_F,ACTTGCCAAGTTTCATATGT,45,20,47.24138946362797,0.9392077240420776,35.0,3,0.15,Ba_5_V3,F,45_R,TAATAAGGATGGTCACTCTA,20,43.71739805823681,2.584783681349066,35.0,2,0.0,R,S2,A0330,Ba,,63
93380,45_F,ACTTGCCAAGTTTCATATGT,45,20,47.24138946362797,0.9392077240420776,35.0,3,0.15,Ba_5_V3,F,45_R,TAATAAGGATGGTCACTCTA,20,43.71739805823681,2.584783681349066,35.0,2,0.0,R,S144,BA-BaBTSeqBa007P2--xx-xxx-xxxx-021-SF,Ba,,126
93221,45_F,ACTTGCCAAGTTTCATATGT,45,20,47.24138946362797,0.7688720165147558,35.0,3,0.15,Ba_5_V35,F,45_R,TAATAAGGATGGTCACTCTA,20,43.71739805823681,2.755119388876388,35.0,2,0.0,R,S6,A0706,Ba,,97
93223,45_F,ACTTGCCAAGTTTCATATGT,45,20,47.24138946362797,0.7688720165147558,35.0,3,0.15,Ba_5_V35,F,45_R,TAATAAGGATGGTCACTCTA,20,43.71739805823681,2.755119388876388,35.0,2,0.0,R,S5,A0615,Ba,,70
93224,45_F,ACTTGCCAAGTTTCATATGT,45,20,47.24138946362797,0.7688720165147558,35.0,3,0.15,Ba_5_V35,F,45_R,TAATAAGGATGGTCACTCTA,20,43.71739805823681,2.755119388876388,35.0,2,0.0,R,S2,A0330,Ba,,63
93222,45_F,ACTTGCCAAGTTTCATATGT,45,20,47.24138946362797,0.7688720165147558,35.0,3,0.15,Ba_5_V35,F,45_R,TAATAAGGATGGTCACTCTA,20,43.71739805823681,2.755119388876388,35.0,2,0.0,R,S4,A0605,Ba,,8514
93288,45_F,ACTTGCCAAGTTTCATATGT,45,20,47.24138946362797,0.7688720165147558,35.0,3,0.15,Ba_5_V35,F,45_R,TAATAAGGATGGTCACTCTA,20,43.71739805823681,2.755119388876388,35.0,2,0.0,R,S144,BA-BaBTSeqBa007P2--xx-xxx-xxxx-021-SF,Ba,,126
93498,45_F,TCAACTCTTACATATTGCCAATGTG,45,25,52.01077006505506,4.795646404312443,36.0,2,0.0,Ba_V45,F,45_R,TAATAAGGATGGTCACTCTA,20,43.71739805823681,3.4977256025057883,35.0,2,0.0,R,S4,A0605,Ba,,8514
93499,45_F,TCAACTCTTACATATTGCCAATGTG,45,25,52.01077006505506,4.795646404312443,36.0,2,0.0,Ba_V45,F,45_R,TAATAAGGATGGTCACTCTA,20,43.71739805823681,3.4977256025057883,35.0,2,0.0,R,S5,A0615,Ba,,70
93500,45_F,TCAACTCTTACATATTGCCAATGTG,45,25,52.01077006505506,4.795646404312443,36.0,2,0.0,Ba_V45,F,45_R,TAATAAGGATGGTCACTCTA,20,43.71739805823681,3.4977256025057883,35.0,2,0.0,R,S2,A0330,Ba,,63
93497,45_F,TCAACTCTTACATATTGCCAATGTG,45,25,52.01077006505506,4.795646404312443,36.0,2,0.0,Ba_V45,F,45_R,TAATAAGGATGGTCACTCTA,20,43.71739805823681,3.4977256025057883,35.0,2,0.0,R,S6,A0706,Ba,,97
93564,45_F,TCAACTCTTACATATTGCCAATGTG,45,25,52.01077006505506,4.795646404312443,36.0,2,0.0,Ba_V45,F,45_R,TAATAAGGATGGTCACTCTA,20,43.71739805823681,3.4977256025057883,35.0,2,0.0,R,S144,BA-BaBTSeqBa007P2--xx-xxx-xxxx-021-SF,Ba,,126
93405,45_F,TCAACTCTTACATATTGCCAATGTG,45,25,52.01077006505506,4.767706439539445,36.0,2,0.0,Ba_6_V4,F,45_R,TAATAAGGATGGTCACTCTA,20,43.71739805823681,3.5256655672787858,35.0,2,0.0,R,S6,A0706,Ba,,97
93406,45_F,TCAACTCTTACATATTGCCAATGTG,45,25,52.01077006505506,4.767706439539445,36.0,2,0.0,Ba_6_V4,F,45_R,TAATAAGGATGGTCACTCTA,20,43.71739805823681,3.5256655672787858,35.0,2,0.0,R,S4,A0605,Ba,,8514
93407,45_F,TCAACTCTTACATATTGCCAATGTG,45,25,52.01077006505506,4.767706439539445,36.0,2,0.0,Ba_6_V4,F,45_R,TAATAAGGATGGTCACTCTA,20,43.71739805823681,3.5256655672787858,35.0,2,0.0,R,S5,A0615,Ba,,70
93408,45_F,TCAACTCTTACATATTGCCAATGTG,45,25,52.01077006505506,4.767706439539445,36.0,2,0.0,Ba_6_V4,F,45_R,TAATAAGGATGGTCACTCTA,20,43.71739805823681,3.5256655672787858,35.0,2,0.0,R,S2,A0330,Ba,,63
93472,45_F,TCAACTCTTACATATTGCCAATGTG,45,25,52.01077006505506,4.767706439539445,36.0,2,0.0,Ba_6_V4,F,45_R,TAATAAGGATGGTCACTCTA,20,43.71739805823681,3.5256655672787858,35.0,2,0.0,R,S144,BA-BaBTSeqBa007P2--xx-xxx-xxxx-021-SF,Ba,,126
92945,45_F,ACTTGCCAAGTTTCATATGT,45,20,47.24138946362797,2.405081337870968,35.0,3,0.15,Ba_2,F,45_R,TAATAAGGATGGTCACTCTA,20,43.71739805823681,1.1189100675201755,35.0,2,0.0,R,S6,A0706,Ba,,97
92946,45_F,ACTTGCCAAGTTTCATATGT,45,20,47.24138946362797,2.405081337870968,35.0,3,0.15,Ba_2,F,45_R,TAATAAGGATGGTCACTCTA,20,43.71739805823681,1.1189100675201755,35.0,2,0.0,R,S4,A0605,Ba,,8514
92947,45_F,ACTTGCCAAGTTTCATATGT,45,20,47.24138946362797,2.405081337870968,35.0,3,0.15,Ba_2,F,45_R,TAATAAGGATGGTCACTCTA,20,43.71739805823681,1.1189100675201755,35.0,2,0.0,R,S5,A0615,Ba,,70
92948,45_F,ACTTGCCAAGTTTCATATGT,45,20,47.24138946362797,2.405081337870968,35.0,3,0.15,Ba_2,F,45_R,TAATAAGGATGGTCACTCTA,20,43.71739805823681,1.1189100675201755,35.0,2,0.0,R,S2,A0330,Ba,,63
93012,45_F,ACTTGCCAAGTTTCATATGT,45,20,47.24138946362797,2.405081337870968,35.0,3,0.15,Ba_2,F,45_R,TAATAAGGATGGTCACTCTA,20,43.71739805823681,1.1189100675201755,35.0,2,0.0,R,S144,BA-BaBTSeqBa007P2--xx-xxx-xxxx-021-SF,Ba,,126
92853,45_F,ACTTGCCAAGTTTCATATGT,45,20,47.24138946362797,2.405081337870968,35.0,3,0.15,Ba_1,F,45_R,TAATAAGGATGGTCACTCTA,20,43.71739805823681,1.1189100675201755,35.0,2,0.0,R,S6,A0706,Ba,,97
92854,45_F,ACTTGCCAAGTTTCATATGT,45,20,47.24138946362797,2.405081337870968,35.0,3,0.15,Ba_1,F,45_R,TAATAAGGATGGTCACTCTA,20,43.71739805823681,1.1189100675201755,35.0,2,0.0,R,S4,A0605,Ba,,8514
92855,45_F,ACTTGCCAAGTTTCATATGT,45,20,47.24138946362797,2.405081337870968,35.0,3,0.15,Ba_1,F,45_R,TAATAAGGATGGTCACTCTA,20,43.71739805823681,1.1189100675201755,35.0,2,0.0,R,S5,A0615,Ba,,70
92856,45_F,ACTTGCCAAGTTTCATATGT,45,20,47.24138946362797,2.405081337870968,35.0,3,0.15,Ba_1,F,45_R,TAATAAGGATGGTCACTCTA,20,43.71739805823681,1.1189100675201755,35.0,2,0.0,R,S2,A0330,Ba,,63
92920,45_F,ACTTGCCAAGTTTCATATGT,45,20,47.24138946362797,2.405081337870968,35.0,3,0.15,Ba_1,F,45_R,TAATAAGGATGGTCACTCTA,20,43.71739805823681,1.1189100675201755,35.0,2,0.0,R,S144,BA-BaBTSeqBa007P2--xx-xxx-xxxx-021-SF,Ba,,126
93129,45_F,ACTTGCCAAGTTTCATATGT,45,20,47.24138946362797,0.9392077240420776,35.0,3,0.15,Ba_4,F,45_R,TAATAAGGATGGTCACTCTA,20,43.71739805823681,2.584783681349066,35.0,2,0.0,R,S6,A0706,Ba,,97
93130,45_F,ACTTGCCAAGTTTCATATGT,45,20,47.24138946362797,0.9392077240420776,35.0,3,0.15,Ba_4,F,45_R,TAATAAGGATGGTCACTCTA,20,43.71739805823681,2.584783681349066,35.0,2,0.0,R,S4,A0605,Ba,,8514
93131,45_F,ACTTGCCAAGTTTCATATGT,45,20,47.24138946362797,0.9392077240420776,35.0,3,0.15,Ba_4,F,45_R,TAATAAGGATGGTCACTCTA,20,43.71739805823681,2.584783681349066,35.0,2,0.0,R,S5,A0615,Ba,,70
93132,45_F,ACTTGCCAAGTTTCATATGT,45,20,47.24138946362797,0.9392077240420776,35.0,3,0.15,Ba_4,F,45_R,TAATAAGGATGGTCACTCTA,20,43.71739805823681,2.584783681349066,35.0,2,0.0,R,S2,A0330,Ba,,63
93196,45_F,ACTTGCCAAGTTTCATATGT,45,20,47.24138946362797,0.9392077240420776,35.0,3,0.15,Ba_4,F,45_R,TAATAAGGATGGTCACTCTA,20,43.71739805823681,2.584783681349066,35.0,2,0.0,R,S144,BA-BaBTSeqBa007P2--xx-xxx-xxxx-021-SF,Ba,,126
93037,45_F,ACTTGCCAAGTTTCATATGT,45,20,47.24138946362797,2.405081337870968,35.0,3,0.15,Ba_3,F,45_R,TAATAAGGATGGTCACTCTA,20,43.71739805823681,1.1189100675201755,35.0,2,0.0,R,S6,A0706,Ba,,97
93038,45_F,ACTTGCCAAGTTTCATATGT,45,20,47.24138946362797,2.405081337870968,35.0,3,0.15,Ba_3,F,45_R,TAATAAGGATGGTCACTCTA,20,43.71739805823681,1.1189100675201755,35.0,2,0.0,R,S4,A0605,Ba,,8514
93039,45_F,ACTTGCCAAGTTTCATATGT,45,20,47.24138946362797,2.405081337870968,35.0,3,0.15,Ba_3,F,45_R,TAATAAGGATGGTCACTCTA,20,43.71739805823681,1.1189100675201755,35.0,2,0.0,R,S5,A0615,Ba,,70
93040,45_F,ACTTGCCAAGTTTCATATGT,45,20,47.24138946362797,2.405081337870968,35.0,3,0.15,Ba_3,F,45_R,TAATAAGGATGGTCACTCTA,20,43.71739805823681,1.1189100675201755,35.0,2,0.0,R,S2,A0330,Ba,,63
93104,45_F,ACTTGCCAAGTTTCATATGT,45,20,47.24138946362797,2.405081337870968,35.0,3,0.15,Ba_3,F,45_R,TAATAAGGATGGTCACTCTA,20,43.71739805823681,1.1189100675201755,35.0,2,0.0,R,S144,BA-BaBTSeqBa007P2--xx-xxx-xxxx-021-SF,Ba,,126
94044,46_F,AATGTTCTCTTGCTTTGGTT,46,20,47.763086003884546,1.2905685567713403,35.0,3,0.15,Ba_5_V35,F,46_R,ACATTAGATAAATTTGGTACTT,22,42.987104651045,3.48541279606821,22.72727272727273,3,0.2727272727272727,R,S144,BA-BaBTSeqBa007P2--xx-xxx-xxxx-021-SF,Ba,,76
94074,46_F,TGGTTGTTCTGGTGTT,46,16,43.81021657708595,2.491965162499937,43.75,2,0.0,Ba_5_V3,F,46_R,ACTTGTAAAACGGCAGAA,18,46.29783873641839,0.004343003167505799,38.888888888888886,4,0.2222222222222222,R,S6,A0706,Ba,,19
94075,46_F,TGGTTGTTCTGGTGTT,46,16,43.81021657708595,2.491965162499937,43.75,2,0.0,Ba_5_V3,F,46_R,ACTTGTAAAACGGCAGAA,18,46.29783873641839,0.004343003167505799,38.888888888888886,4,0.2222222222222222,R,S4,A0605,Ba,,4462
94076,46_F,TGGTTGTTCTGGTGTT,46,16,43.81021657708595,2.491965162499937,43.75,2,0.0,Ba_5_V3,F,46_R,ACTTGTAAAACGGCAGAA,18,46.29783873641839,0.004343003167505799,38.888888888888886,4,0.2222222222222222,R,S2,A0330,Ba,,15
94077,46_F,TGGTTGTTCTGGTGTT,46,16,43.81021657708595,2.491965162499937,43.75,2,0.0,Ba_5_V3,F,46_R,ACTTGTAAAACGGCAGAA,18,46.29783873641839,0.004343003167505799,38.888888888888886,4,0.2222222222222222,R,S5,A0615,Ba,,8
93947,46_F,TGGTTGTTCTGGTGTT,46,16,43.81021657708595,2.491965162499937,43.75,2,0.0,Ba_4,F,46_R,ACTTGTAAAACGGCAGAA,18,46.29783873641839,0.004343003167505799,38.888888888888886,4,0.2222222222222222,R,S144,BA-BaBTSeqBa007P2--xx-xxx-xxxx-021-SF,Ba,,76
93980,46_F,AATGTTCTCTTGCTTTGGTT,46,20,47.763086003884546,1.2905685567713403,35.0,3,0.15,Ba_5_V35,F,46_R,ACATTAGATAAATTTGGTACTT,22,42.987104651045,3.48541279606821,22.72727272727273,3,0.2727272727272727,R,S5,A0615,Ba,,8
93978,46_F,AATGTTCTCTTGCTTTGGTT,46,20,47.763086003884546,1.2905685567713403,35.0,3,0.15,Ba_5_V35,F,46_R,ACATTAGATAAATTTGGTACTT,22,42.987104651045,3.48541279606821,22.72727272727273,3,0.2727272727272727,R,S4,A0605,Ba,,4462
93979,46_F,AATGTTCTCTTGCTTTGGTT,46,20,47.763086003884546,1.2905685567713403,35.0,3,0.15,Ba_5_V35,F,46_R,ACATTAGATAAATTTGGTACTT,22,42.987104651045,3.48541279606821,22.72727272727273,3,0.2727272727272727,R,S2,A0330,Ba,,15
93977,46_F,AATGTTCTCTTGCTTTGGTT,46,20,47.763086003884546,1.2905685567713403,35.0,3,0.15,Ba_5_V35,F,46_R,ACATTAGATAAATTTGGTACTT,22,42.987104651045,3.48541279606821,22.72727272727273,3,0.2727272727272727,R,S6,A0706,Ba,,19
94268,46_F,CTCTTGCTTTGGTTGTTCTGGTG,46,23,54.664066907855556,7.448943247112943,47.82608695652174,3,0.13043478260869565,Ba_V45,F,46_R,GAGTCAAGAAACATTACAAC,20,44.472000892934325,2.743122767808295,35.0,3,0.15,R,S6,A0706,Ba,,19
94269,46_F,CTCTTGCTTTGGTTGTTCTGGTG,46,23,54.664066907855556,7.448943247112943,47.82608695652174,3,0.13043478260869565,Ba_V45,F,46_R,GAGTCAAGAAACATTACAAC,20,44.472000892934325,2.743122767808295,35.0,3,0.15,R,S4,A0605,Ba,,4462
94270,46_F,CTCTTGCTTTGGTTGTTCTGGTG,46,23,54.664066907855556,7.448943247112943,47.82608695652174,3,0.13043478260869565,Ba_V45,F,46_R,GAGTCAAGAAACATTACAAC,20,44.472000892934325,2.743122767808295,35.0,3,0.15,R,S2,A0330,Ba,,15
94271,46_F,CTCTTGCTTTGGTTGTTCTGGTG,46,23,54.664066907855556,7.448943247112943,47.82608695652174,3,0.13043478260869565,Ba_V45,F,46_R,GAGTCAAGAAACATTACAAC,20,44.472000892934325,2.743122767808295,35.0,3,0.15,R,S5,A0615,Ba,,8
94335,46_F,CTCTTGCTTTGGTTGTTCTGGTG,46,23,54.664066907855556,7.448943247112943,47.82608695652174,3,0.13043478260869565,Ba_V45,F,46_R,GAGTCAAGAAACATTACAAC,20,44.472000892934325,2.743122767808295,35.0,3,0.15,R,S144,BA-BaBTSeqBa007P2--xx-xxx-xxxx-021-SF,Ba,,76
94171,46_F,CTCTTGCTTTGGTTGTTCTGGTG,46,23,54.664066907855556,7.421003282339946,47.82608695652174,3,0.13043478260869565,Ba_6_V4,F,46_R,GAGTCAAGAAACATTACAAC,20,44.472000892934325,2.7710627325812918,35.0,3,0.15,R,S6,A0706,Ba,,19
94172,46_F,CTCTTGCTTTGGTTGTTCTGGTG,46,23,54.664066907855556,7.421003282339946,47.82608695652174,3,0.13043478260869565,Ba_6_V4,F,46_R,GAGTCAAGAAACATTACAAC,20,44.472000892934325,2.7710627325812918,35.0,3,0.15,R,S4,A0605,Ba,,4462
94173,46_F,CTCTTGCTTTGGTTGTTCTGGTG,46,23,54.664066907855556,7.421003282339946,47.82608695652174,3,0.13043478260869565,Ba_6_V4,F,46_R,GAGTCAAGAAACATTACAAC,20,44.472000892934325,2.7710627325812918,35.0,3,0.15,R,S2,A0330,Ba,,15
94174,46_F,CTCTTGCTTTGGTTGTTCTGGTG,46,23,54.664066907855556,7.421003282339946,47.82608695652174,3,0.13043478260869565,Ba_6_V4,F,46_R,GAGTCAAGAAACATTACAAC,20,44.472000892934325,2.7710627325812918,35.0,3,0.15,R,S5,A0615,Ba,,8
94141,46_F,TGGTTGTTCTGGTGTT,46,16,43.81021657708595,2.491965162499937,43.75,2,0.0,Ba_5_V3,F,46_R,ACTTGTAAAACGGCAGAA,18,46.29783873641839,0.004343003167505799,38.888888888888886,4,0.2222222222222222,R,S144,BA-BaBTSeqBa007P2--xx-xxx-xxxx-021-SF,Ba,,76
94238,46_F,CTCTTGCTTTGGTTGTTCTGGTG,46,23,54.664066907855556,7.421003282339946,47.82608695652174,3,0.13043478260869565,Ba_6_V4,F,46_R,GAGTCAAGAAACATTACAAC,20,44.472000892934325,2.7710627325812918,35.0,3,0.15,R,S144,BA-BaBTSeqBa007P2--xx-xxx-xxxx-021-SF,Ba,,76
93686,46_F,AATGTTCTCTTGCTTTGGTT,46,20,47.763086003884546,2.9267778781275524,35.0,3,0.15,Ba_2,F,46_R,ACATTAGATAAATTTGGTACTT,22,42.987104651045,1.8492034747119988,22.72727272727273,3,0.2727272727272727,R,S6,A0706,Ba,,19
93687,46_F,AATGTTCTCTTGCTTTGGTT,46,20,47.763086003884546,2.9267778781275524,35.0,3,0.15,Ba_2,F,46_R,ACATTAGATAAATTTGGTACTT,22,42.987104651045,1.8492034747119988,22.72727272727273,3,0.2727272727272727,R,S4,A0605,Ba,,4462
93688,46_F,AATGTTCTCTTGCTTTGGTT,46,20,47.763086003884546,2.9267778781275524,35.0,3,0.15,Ba_2,F,46_R,ACATTAGATAAATTTGGTACTT,22,42.987104651045,1.8492034747119988,22.72727272727273,3,0.2727272727272727,R,S2,A0330,Ba,,15
93689,46_F,AATGTTCTCTTGCTTTGGTT,46,20,47.763086003884546,2.9267778781275524,35.0,3,0.15,Ba_2,F,46_R,ACATTAGATAAATTTGGTACTT,22,42.987104651045,1.8492034747119988,22.72727272727273,3,0.2727272727272727,R,S5,A0615,Ba,,8
93589,46_F,AATGTTCTCTTGCTTTGGTT,46,20,47.763086003884546,2.9267778781275524,35.0,3,0.15,Ba_1,F,46_R,ACATTAGATAAATTTGGTACTT,22,42.987104651045,1.8492034747119988,22.72727272727273,3,0.2727272727272727,R,S6,A0706,Ba,,19
93590,46_F,AATGTTCTCTTGCTTTGGTT,46,20,47.763086003884546,2.9267778781275524,35.0,3,0.15,Ba_1,F,46_R,ACATTAGATAAATTTGGTACTT,22,42.987104651045,1.8492034747119988,22.72727272727273,3,0.2727272727272727,R,S4,A0605,Ba,,4462
93591,46_F,AATGTTCTCTTGCTTTGGTT,46,20,47.763086003884546,2.9267778781275524,35.0,3,0.15,Ba_1,F,46_R,ACATTAGATAAATTTGGTACTT,22,42.987104651045,1.8492034747119988,22.72727272727273,3,0.2727272727272727,R,S2,A0330,Ba,,15
93592,46_F,AATGTTCTCTTGCTTTGGTT,46,20,47.763086003884546,2.9267778781275524,35.0,3,0.15,Ba_1,F,46_R,ACATTAGATAAATTTGGTACTT,22,42.987104651045,1.8492034747119988,22.72727272727273,3,0.2727272727272727,R,S5,A0615,Ba,,8
93656,46_F,AATGTTCTCTTGCTTTGGTT,46,20,47.763086003884546,2.9267778781275524,35.0,3,0.15,Ba_1,F,46_R,ACATTAGATAAATTTGGTACTT,22,42.987104651045,1.8492034747119988,22.72727272727273,3,0.2727272727272727,R,S144,BA-BaBTSeqBa007P2--xx-xxx-xxxx-021-SF,Ba,,76
93850,46_F,AATGTTCTCTTGCTTTGGTT,46,20,47.763086003884546,2.9267778781275524,35.0,3,0.15,Ba_3,F,46_R,ACATTAGATAAATTTGGTACTT,22,42.987104651045,1.8492034747119988,22.72727272727273,3,0.2727272727272727,R,S144,BA-BaBTSeqBa007P2--xx-xxx-xxxx-021-SF,Ba,,76
93880,46_F,TGGTTGTTCTGGTGTT,46,16,43.81021657708595,2.491965162499937,43.75,2,0.0,Ba_4,F,46_R,ACTTGTAAAACGGCAGAA,18,46.29783873641839,0.004343003167505799,38.888888888888886,4,0.2222222222222222,R,S6,A0706,Ba,,19
93881,46_F,TGGTTGTTCTGGTGTT,46,16,43.81021657708595,2.491965162499937,43.75,2,0.0,Ba_4,F,46_R,ACTTGTAAAACGGCAGAA,18,46.29783873641839,0.004343003167505799,38.888888888888886,4,0.2222222222222222,R,S4,A0605,Ba,,4462
93882,46_F,TGGTTGTTCTGGTGTT,46,16,43.81021657708595,2.491965162499937,43.75,2,0.0,Ba_4,F,46_R,ACTTGTAAAACGGCAGAA,18,46.29783873641839,0.004343003167505799,38.888888888888886,4,0.2222222222222222,R,S2,A0330,Ba,,15
93883,46_F,TGGTTGTTCTGGTGTT,46,16,43.81021657708595,2.491965162499937,43.75,2,0.0,Ba_4,F,46_R,ACTTGTAAAACGGCAGAA,18,46.29783873641839,0.004343003167505799,38.888888888888886,4,0.2222222222222222,R,S5,A0615,Ba,,8
93753,46_F,AATGTTCTCTTGCTTTGGTT,46,20,47.763086003884546,2.9267778781275524,35.0,3,0.15,Ba_2,F,46_R,ACATTAGATAAATTTGGTACTT,22,42.987104651045,1.8492034747119988,22.72727272727273,3,0.2727272727272727,R,S144,BA-BaBTSeqBa007P2--xx-xxx-xxxx-021-SF,Ba,,76
93783,46_F,AATGTTCTCTTGCTTTGGTT,46,20,47.763086003884546,2.9267778781275524,35.0,3,0.15,Ba_3,F,46_R,ACATTAGATAAATTTGGTACTT,22,42.987104651045,1.8492034747119988,22.72727272727273,3,0.2727272727272727,R,S6,A0706,Ba,,19
93785,46_F,AATGTTCTCTTGCTTTGGTT,46,20,47.763086003884546,2.9267778781275524,35.0,3,0.15,Ba_3,F,46_R,ACATTAGATAAATTTGGTACTT,22,42.987104651045,1.8492034747119988,22.72727272727273,3,0.2727272727272727,R,S2,A0330,Ba,,15
93786,46_F,AATGTTCTCTTGCTTTGGTT,46,20,47.763086003884546,2.9267778781275524,35.0,3,0.15,Ba_3,F,46_R,ACATTAGATAAATTTGGTACTT,22,42.987104651045,1.8492034747119988,22.72727272727273,3,0.2727272727272727,R,S5,A0615,Ba,,8
93784,46_F,AATGTTCTCTTGCTTTGGTT,46,20,47.763086003884546,2.9267778781275524,35.0,3,0.15,Ba_3,F,46_R,ACATTAGATAAATTTGGTACTT,22,42.987104651045,1.8492034747119988,22.72727272727273,3,0.2727272727272727,R,S4,A0605,Ba,,4462
37943,47_F,TTTTGTACTTAATGGCAG,47,18,41.751735278748754,3.0845728470082463,33.33333333333333,4,0.2222222222222222,Ba_1,F,47_R,GTTCTTTTGGATCCTCTT,18,43.18877375762981,1.6475343681271966,38.888888888888886,4,0.2222222222222222,R,S144,BA-BaBTSeqBa007P2--xx-xxx-xxxx-021-SF,Ba,,577
37885,47_F,TTTTGTACTTAATGGCAG,47,18,41.751735278748754,3.0845728470082463,33.33333333333333,4,0.2222222222222222,Ba_1,F,47_R,GTTCTTTTGGATCCTCTT,18,43.18877375762981,1.6475343681271966,38.888888888888886,4,0.2222222222222222,R,S4,A0605,Ba,,855
37884,47_F,TTTTGTACTTAATGGCAG,47,18,41.751735278748754,3.0845728470082463,33.33333333333333,4,0.2222222222222222,Ba_1,F,47_R,GTTCTTTTGGATCCTCTT,18,43.18877375762981,1.6475343681271966,38.888888888888886,4,0.2222222222222222,R,S5,A0615,Ba,,1
37883,47_F,TTTTGTACTTAATGGCAG,47,18,41.751735278748754,3.0845728470082463,33.33333333333333,4,0.2222222222222222,Ba_1,F,47_R,GTTCTTTTGGATCCTCTT,18,43.18877375762981,1.6475343681271966,38.888888888888886,4,0.2222222222222222,R,S2,A0330,Ba,,4
37882,47_F,TTTTGTACTTAATGGCAG,47,18,41.751735278748754,3.0845728470082463,33.33333333333333,4,0.2222222222222222,Ba_1,F,47_R,GTTCTTTTGGATCCTCTT,18,43.18877375762981,1.6475343681271966,38.888888888888886,4,0.2222222222222222,R,S6,A0706,Ba,,0
38030,47_F,TTTTGTACTTAATGGCAG,47,18,41.751735278748754,3.0845728470082463,33.33333333333333,4,0.2222222222222222,Ba_2,F,47_R,GTTCTTTTGGATCCTCTT,18,43.18877375762981,1.6475343681271966,38.888888888888886,4,0.2222222222222222,R,S144,BA-BaBTSeqBa007P2--xx-xxx-xxxx-021-SF,Ba,,577
37972,47_F,TTTTGTACTTAATGGCAG,47,18,41.751735278748754,3.0845728470082463,33.33333333333333,4,0.2222222222222222,Ba_2,F,47_R,GTTCTTTTGGATCCTCTT,18,43.18877375762981,1.6475343681271966,38.888888888888886,4,0.2222222222222222,R,S4,A0605,Ba,,855
37971,47_F,TTTTGTACTTAATGGCAG,47,18,41.751735278748754,3.0845728470082463,33.33333333333333,4,0.2222222222222222,Ba_2,F,47_R,GTTCTTTTGGATCCTCTT,18,43.18877375762981,1.6475343681271966,38.888888888888886,4,0.2222222222222222,R,S5,A0615,Ba,,1
37970,47_F,TTTTGTACTTAATGGCAG,47,18,41.751735278748754,3.0845728470082463,33.33333333333333,4,0.2222222222222222,Ba_2,F,47_R,GTTCTTTTGGATCCTCTT,18,43.18877375762981,1.6475343681271966,38.888888888888886,4,0.2222222222222222,R,S2,A0330,Ba,,4
37969,47_F,TTTTGTACTTAATGGCAG,47,18,41.751735278748754,3.0845728470082463,33.33333333333333,4,0.2222222222222222,Ba_2,F,47_R,GTTCTTTTGGATCCTCTT,18,43.18877375762981,1.6475343681271966,38.888888888888886,4,0.2222222222222222,R,S6,A0706,Ba,,0
38407,47_F,TTTTGTACTTAATGGCAG,47,18,41.751735278748754,5.491328346766857,33.33333333333333,4,0.2222222222222222,Ba_6_V4,F,47_R,GTTCTTTTGGATCCTCTT,18,43.18877375762981,4.054289867885807,38.888888888888886,4,0.2222222222222222,R,S4,A0605,Ba,,855