,Primer_Name_L,Seq_L,Amplicon,Primer_Length_L,Tm_L,Delta Tm_L,GC_Content_L,Length_Longest_Homopolymer_L,Percent_Homopolymer_L,exp,flank_L,Primer_Name_R,Seq_R,Primer_Length_R,Tm_R,Delta Tm_R,GC_Content_R,Length_Longest_Homopolymer_R,Percent_Homopolymer_R,flank_R,sample_id,sample_name,species,strain,n_reads
52719,58_F,GAAGCATGTATTCATATTGAA,58,21,43.95311019369985,0.8831979320571577,28.57142857142857,2,0.0,Ba_2,F,58_R,CGCTCCCTCTTTGTATTT,18,46.24266701273677,1.4063588869797743,44.444444444444436,3,0.5,R,S5,A0615,Ba,,0
52718,58_F,GAAGCATGTATTCATATTGAA,58,21,43.95311019369985,0.8831979320571577,28.57142857142857,2,0.0,Ba_2,F,58_R,CGCTCCCTCTTTGTATTT,18,46.24266701273677,1.4063588869797743,44.444444444444436,3,0.5,R,S6,A0706,Ba,,0
52717,58_F,GAAGCATGTATTCATATTGAA,58,21,43.95311019369985,0.8831979320571577,28.57142857142857,2,0.0,Ba_2,F,58_R,CGCTCCCTCTTTGTATTT,18,46.24266701273677,1.4063588869797743,44.444444444444436,3,0.5,R,S2,A0330,Ba,,0
52716,58_F,GAAGCATGTATTCATATTGAA,58,21,43.95311019369985,0.8831979320571577,28.57142857142857,2,0.0,Ba_2,F,58_R,CGCTCCCTCTTTGTATTT,18,46.24266701273677,1.4063588869797743,44.444444444444436,3,0.5,R,S4,A0605,Ba,,3
52766,58_F,GAAGCATGTATTCATATTGAA,58,21,43.95311019369985,0.8831979320571577,28.57142857142857,2,0.0,Ba_2,F,58_R,CGCTCCCTCTTTGTATTT,18,46.24266701273677,1.4063588869797743,44.444444444444436,3,0.5,R,S144,BA-BaBTSeqBa007P2--xx-xxx-xxxx-021-SF,Ba,,19
52908,58_F,GGAATAGTAAAGAAAAGGCTGG,58,22,48.99561679263815,2.693435053052255,40.90909090909091,4,0.3181818181818182,Ba_4,F,58_R,CACGCTCCCTCTTTGTA,17,47.57898070299649,1.2767989634105987,52.941176470588246,3,0.35294117647058826,R,S144,BA-BaBTSeqBa007P2--xx-xxx-xxxx-021-SF,Ba,,19
52932,58_F,GGAATAGTAAAGAAAAGGCTGG,58,22,48.99561679263815,2.693435053052255,40.90909090909091,4,0.3181818181818182,Ba_5_V3,F,58_R,CACGCTCCCTCTTTGTA,17,47.57898070299649,1.2767989634105987,52.941176470588246,3,0.35294117647058826,R,S5,A0615,Ba,,0
52931,58_F,GGAATAGTAAAGAAAAGGCTGG,58,22,48.99561679263815,2.693435053052255,40.90909090909091,4,0.3181818181818182,Ba_5_V3,F,58_R,CACGCTCCCTCTTTGTA,17,47.57898070299649,1.2767989634105987,52.941176470588246,3,0.35294117647058826,R,S6,A0706,Ba,,0
52930,58_F,GGAATAGTAAAGAAAAGGCTGG,58,22,48.99561679263815,2.693435053052255,40.90909090909091,4,0.3181818181818182,Ba_5_V3,F,58_R,CACGCTCCCTCTTTGTA,17,47.57898070299649,1.2767989634105987,52.941176470588246,3,0.35294117647058826,R,S2,A0330,Ba,,0
52929,58_F,GGAATAGTAAAGAAAAGGCTGG,58,22,48.99561679263815,2.693435053052255,40.90909090909091,4,0.3181818181818182,Ba_5_V3,F,58_R,CACGCTCCCTCTTTGTA,17,47.57898070299649,1.2767989634105987,52.941176470588246,3,0.35294117647058826,R,S4,A0605,Ba,,3
52837,58_F,GAAGCATGTATTCATATTGAA,58,21,43.95311019369985,0.8831979320571577,28.57142857142857,2,0.0,Ba_3,F,58_R,CGCTCCCTCTTTGTATTT,18,46.24266701273677,1.4063588869797743,44.444444444444436,3,0.5,R,S144,BA-BaBTSeqBa007P2--xx-xxx-xxxx-021-SF,Ba,,19
52861,58_F,GGAATAGTAAAGAAAAGGCTGG,58,22,48.99561679263815,2.693435053052255,40.90909090909091,4,0.3181818181818182,Ba_4,F,58_R,CACGCTCCCTCTTTGTA,17,47.57898070299649,1.2767989634105987,52.941176470588246,3,0.35294117647058826,R,S5,A0615,Ba,,0
52860,58_F,GGAATAGTAAAGAAAAGGCTGG,58,22,48.99561679263815,2.693435053052255,40.90909090909091,4,0.3181818181818182,Ba_4,F,58_R,CACGCTCCCTCTTTGTA,17,47.57898070299649,1.2767989634105987,52.941176470588246,3,0.35294117647058826,R,S6,A0706,Ba,,0
52859,58_F,GGAATAGTAAAGAAAAGGCTGG,58,22,48.99561679263815,2.693435053052255,40.90909090909091,4,0.3181818181818182,Ba_4,F,58_R,CACGCTCCCTCTTTGTA,17,47.57898070299649,1.2767989634105987,52.941176470588246,3,0.35294117647058826,R,S2,A0330,Ba,,0
52858,58_F,GGAATAGTAAAGAAAAGGCTGG,58,22,48.99561679263815,2.693435053052255,40.90909090909091,4,0.3181818181818182,Ba_4,F,58_R,CACGCTCCCTCTTTGTA,17,47.57898070299649,1.2767989634105987,52.941176470588246,3,0.35294117647058826,R,S4,A0605,Ba,,3
52647,58_F,GAAGCATGTATTCATATTGAA,58,21,43.95311019369985,0.8831979320571577,28.57142857142857,2,0.0,Ba_1,F,58_R,CGCTCCCTCTTTGTATTT,18,46.24266701273677,1.4063588869797743,44.444444444444436,3,0.5,R,S6,A0706,Ba,,0
52646,58_F,GAAGCATGTATTCATATTGAA,58,21,43.95311019369985,0.8831979320571577,28.57142857142857,2,0.0,Ba_1,F,58_R,CGCTCCCTCTTTGTATTT,18,46.24266701273677,1.4063588869797743,44.444444444444436,3,0.5,R,S2,A0330,Ba,,0
52645,58_F,GAAGCATGTATTCATATTGAA,58,21,43.95311019369985,0.8831979320571577,28.57142857142857,2,0.0,Ba_1,F,58_R,CGCTCCCTCTTTGTATTT,18,46.24266701273677,1.4063588869797743,44.444444444444436,3,0.5,R,S4,A0605,Ba,,3
52648,58_F,GAAGCATGTATTCATATTGAA,58,21,43.95311019369985,0.8831979320571577,28.57142857142857,2,0.0,Ba_1,F,58_R,CGCTCCCTCTTTGTATTT,18,46.24266701273677,1.4063588869797743,44.444444444444436,3,0.5,R,S5,A0615,Ba,,0
95216,59_F,TATAAATTCATCACAGCA,59,18,39.87085278483636,6.431328954749532,27.777777777777782,3,0.16666666666666666,Ba_5_V3,F,59_R,AACAGAAATAACAAGAAATAATG,23,43.81222814359933,2.489953595986563,21.73913043478261,3,0.2608695652173913,R,S144,BA-BaBTSeqBa007P2--xx-xxx-xxxx-021-SF,Ba,,24
95232,59_F,AATTCATCACAGCAAATCT,59,19,44.41596759169436,2.827096033821242,31.578947368421048,3,0.15789473684210525,Ba_6_V4,F,59_R,TAGGAATAATAAAAGTCAAGCGT,23,47.99848221009222,0.7554185845766099,30.434782608695656,4,0.17391304347826084,R,S4,A0605,Ba,,0
95231,59_F,AATTCATCACAGCAAATCT,59,19,44.41596759169436,2.827096033821242,31.578947368421048,3,0.15789473684210525,Ba_6_V4,F,59_R,TAGGAATAATAAAAGTCAAGCGT,23,47.99848221009222,0.7554185845766099,30.434782608695656,4,0.17391304347826084,R,S5,A0615,Ba,,0
95230,59_F,AATTCATCACAGCAAATCT,59,19,44.41596759169436,2.827096033821242,31.578947368421048,3,0.15789473684210525,Ba_6_V4,F,59_R,TAGGAATAATAAAAGTCAAGCGT,23,47.99848221009222,0.7554185845766099,30.434782608695656,4,0.17391304347826084,R,S2,A0330,Ba,,0
95155,59_F,TATAAATTCATCACAGCA,59,18,39.87085278483636,6.431328954749532,27.777777777777782,3,0.16666666666666666,Ba_4,F,59_R,AACAGAAATAACAAGAAATAATG,23,43.81222814359933,2.489953595986563,21.73913043478261,3,0.2608695652173913,R,S144,BA-BaBTSeqBa007P2--xx-xxx-xxxx-021-SF,Ba,,24
95171,59_F,TATAAATTCATCACAGCA,59,18,39.87085278483636,6.431328954749532,27.777777777777782,3,0.16666666666666666,Ba_5_V3,F,59_R,AACAGAAATAACAAGAAATAATG,23,43.81222814359933,2.489953595986563,21.73913043478261,3,0.2608695652173913,R,S4,A0605,Ba,,0
95170,59_F,TATAAATTCATCACAGCA,59,18,39.87085278483636,6.431328954749532,27.777777777777782,3,0.16666666666666666,Ba_5_V3,F,59_R,AACAGAAATAACAAGAAATAATG,23,43.81222814359933,2.489953595986563,21.73913043478261,3,0.2608695652173913,R,S5,A0615,Ba,,0
95169,59_F,TATAAATTCATCACAGCA,59,18,39.87085278483636,6.431328954749532,27.777777777777782,3,0.16666666666666666,Ba_5_V3,F,59_R,AACAGAAATAACAAGAAATAATG,23,43.81222814359933,2.489953595986563,21.73913043478261,3,0.2608695652173913,R,S2,A0330,Ba,,0
95338,59_F,AATTCATCACAGCAAATCT,59,19,44.41596759169436,2.7991560690482444,31.578947368421048,3,0.15789473684210525,Ba_V45,F,59_R,TAGGAATAATAAAAGTCAAGCGT,23,47.99848221009222,0.7833585493496074,30.434782608695656,4,0.17391304347826084,R,S144,BA-BaBTSeqBa007P2--xx-xxx-xxxx-021-SF,Ba,,24
95293,59_F,AATTCATCACAGCAAATCT,59,19,44.41596759169436,2.7991560690482444,31.578947368421048,3,0.15789473684210525,Ba_V45,F,59_R,TAGGAATAATAAAAGTCAAGCGT,23,47.99848221009222,0.7833585493496074,30.434782608695656,4,0.17391304347826084,R,S4,A0605,Ba,,0
95292,59_F,AATTCATCACAGCAAATCT,59,19,44.41596759169436,2.7991560690482444,31.578947368421048,3,0.15789473684210525,Ba_V45,F,59_R,TAGGAATAATAAAAGTCAAGCGT,23,47.99848221009222,0.7833585493496074,30.434782608695656,4,0.17391304347826084,R,S5,A0615,Ba,,0
95291,59_F,AATTCATCACAGCAAATCT,59,19,44.41596759169436,2.7991560690482444,31.578947368421048,3,0.15789473684210525,Ba_V45,F,59_R,TAGGAATAATAAAAGTCAAGCGT,23,47.99848221009222,0.7833585493496074,30.434782608695656,4,0.17391304347826084,R,S2,A0330,Ba,,0
95277,59_F,AATTCATCACAGCAAATCT,59,19,44.41596759169436,2.827096033821242,31.578947368421048,3,0.15789473684210525,Ba_6_V4,F,59_R,TAGGAATAATAAAAGTCAAGCGT,23,47.99848221009222,0.7554185845766099,30.434782608695656,4,0.17391304347826084,R,S144,BA-BaBTSeqBa007P2--xx-xxx-xxxx-021-SF,Ba,,24
94987,59_F,TTATGCGGAAAAATCTTTTT,59,20,44.02372432395936,0.8125838017976434,25.0,5,0.5,Ba_2,F,59_R,AAGTCAAGCGTAAATAACAGAAATA,25,49.48193195314161,4.645623827384611,28.000000000000004,3,0.24,R,S5,A0615,Ba,,0
94986,59_F,TTATGCGGAAAAATCTTTTT,59,20,44.02372432395936,0.8125838017976434,25.0,5,0.5,Ba_2,F,59_R,AAGTCAAGCGTAAATAACAGAAATA,25,49.48193195314161,4.645623827384611,28.000000000000004,3,0.24,R,S2,A0330,Ba,,0
94988,59_F,TTATGCGGAAAAATCTTTTT,59,20,44.02372432395936,0.8125838017976434,25.0,5,0.5,Ba_2,F,59_R,AAGTCAAGCGTAAATAACAGAAATA,25,49.48193195314161,4.645623827384611,28.000000000000004,3,0.24,R,S4,A0605,Ba,,0
94927,59_F,TTATGCGGAAAAATCTTTTT,59,20,44.02372432395936,0.8125838017976434,25.0,5,0.5,Ba_1,F,59_R,AAGTCAAGCGTAAATAACAGAAATA,25,49.48193195314161,4.645623827384611,28.000000000000004,3,0.24,R,S4,A0605,Ba,,0
94926,59_F,TTATGCGGAAAAATCTTTTT,59,20,44.02372432395936,0.8125838017976434,25.0,5,0.5,Ba_1,F,59_R,AAGTCAAGCGTAAATAACAGAAATA,25,49.48193195314161,4.645623827384611,28.000000000000004,3,0.24,R,S5,A0615,Ba,,0
94925,59_F,TTATGCGGAAAAATCTTTTT,59,20,44.02372432395936,0.8125838017976434,25.0,5,0.5,Ba_1,F,59_R,AAGTCAAGCGTAAATAACAGAAATA,25,49.48193195314161,4.645623827384611,28.000000000000004,3,0.24,R,S2,A0330,Ba,,0
94972,59_F,TTATGCGGAAAAATCTTTTT,59,20,44.02372432395936,0.8125838017976434,25.0,5,0.5,Ba_1,F,59_R,AAGTCAAGCGTAAATAACAGAAATA,25,49.48193195314161,4.645623827384611,28.000000000000004,3,0.24,R,S144,BA-BaBTSeqBa007P2--xx-xxx-xxxx-021-SF,Ba,,24
95094,59_F,TTATGCGGAAAAATCTTTTT,59,20,44.02372432395936,0.8125838017976434,25.0,5,0.5,Ba_3,F,59_R,AAGTCAAGCGTAAATAACAGAAATA,25,49.48193195314161,4.645623827384611,28.000000000000004,3,0.24,R,S144,BA-BaBTSeqBa007P2--xx-xxx-xxxx-021-SF,Ba,,24
95108,59_F,TATAAATTCATCACAGCA,59,18,39.87085278483636,6.431328954749532,27.777777777777782,3,0.16666666666666666,Ba_4,F,59_R,AACAGAAATAACAAGAAATAATG,23,43.81222814359933,2.489953595986563,21.73913043478261,3,0.2608695652173913,R,S2,A0330,Ba,,0
95109,59_F,TATAAATTCATCACAGCA,59,18,39.87085278483636,6.431328954749532,27.777777777777782,3,0.16666666666666666,Ba_4,F,59_R,AACAGAAATAACAAGAAATAATG,23,43.81222814359933,2.489953595986563,21.73913043478261,3,0.2608695652173913,R,S5,A0615,Ba,,0
95110,59_F,TATAAATTCATCACAGCA,59,18,39.87085278483636,6.431328954749532,27.777777777777782,3,0.16666666666666666,Ba_4,F,59_R,AACAGAAATAACAAGAAATAATG,23,43.81222814359933,2.489953595986563,21.73913043478261,3,0.2608695652173913,R,S4,A0605,Ba,,0
95049,59_F,TTATGCGGAAAAATCTTTTT,59,20,44.02372432395936,0.8125838017976434,25.0,5,0.5,Ba_3,F,59_R,AAGTCAAGCGTAAATAACAGAAATA,25,49.48193195314161,4.645623827384611,28.000000000000004,3,0.24,R,S4,A0605,Ba,,0
95048,59_F,TTATGCGGAAAAATCTTTTT,59,20,44.02372432395936,0.8125838017976434,25.0,5,0.5,Ba_3,F,59_R,AAGTCAAGCGTAAATAACAGAAATA,25,49.48193195314161,4.645623827384611,28.000000000000004,3,0.24,R,S5,A0615,Ba,,0
95047,59_F,TTATGCGGAAAAATCTTTTT,59,20,44.02372432395936,0.8125838017976434,25.0,5,0.5,Ba_3,F,59_R,AAGTCAAGCGTAAATAACAGAAATA,25,49.48193195314161,4.645623827384611,28.000000000000004,3,0.24,R,S2,A0330,Ba,,0
95033,59_F,TTATGCGGAAAAATCTTTTT,59,20,44.02372432395936,0.8125838017976434,25.0,5,0.5,Ba_2,F,59_R,AAGTCAAGCGTAAATAACAGAAATA,25,49.48193195314161,4.645623827384611,28.000000000000004,3,0.24,R,S144,BA-BaBTSeqBa007P2--xx-xxx-xxxx-021-SF,Ba,,24