,Primer_Name_L,Seq_L,Amplicon,Primer_Length_L,Tm_L,Delta Tm_L,GC_Content_L,Length_Longest_Homopolymer_L,Percent_Homopolymer_L,exp,flank_L,Primer_Name_R,Seq_R,Primer_Length_R,Tm_R,Delta Tm_R,GC_Content_R,Length_Longest_Homopolymer_R,Percent_Homopolymer_R,flank_R,sample_id,sample_name,species,strain,n_reads
54272,1_F,TACGTGGGATGCAAATAAA,1,19,46.44526331739007,0.7698603433525406,36.84210526315789,3,0.4736842105263158,Ba_V45,F,1_R,TTTGGACCAGTTTCTGTATT,20,46.43218242932568,0.7829412314169346,35.0,3,0.3,R,S5,A0615,Ba,,19
54108,1_F,TACGTGGGATGCAAATAAA,1,19,46.44526331739007,0.7978003081255379,36.84210526315789,3,0.4736842105263158,Ba_6_V4,F,1_R,TTTGGACCAGTTTCTGTATT,20,46.43218242932568,0.810881196189932,35.0,3,0.3,R,S6,A0706,Ba,,8
54109,1_F,TACGTGGGATGCAAATAAA,1,19,46.44526331739007,0.7978003081255379,36.84210526315789,3,0.4736842105263158,Ba_6_V4,F,1_R,TTTGGACCAGTTTCTGTATT,20,46.43218242932568,0.810881196189932,35.0,3,0.3,R,S2,A0330,Ba,,12
54110,1_F,TACGTGGGATGCAAATAAA,1,19,46.44526331739007,0.7978003081255379,36.84210526315789,3,0.4736842105263158,Ba_6_V4,F,1_R,TTTGGACCAGTTTCTGTATT,20,46.43218242932568,0.810881196189932,35.0,3,0.3,R,S4,A0605,Ba,,3986
54111,1_F,TACGTGGGATGCAAATAAA,1,19,46.44526331739007,0.7978003081255379,36.84210526315789,3,0.4736842105263158,Ba_6_V4,F,1_R,TTTGGACCAGTTTCTGTATT,20,46.43218242932568,0.810881196189932,35.0,3,0.3,R,S5,A0615,Ba,,19
54180,1_F,TACGTGGGATGCAAATAAA,1,19,46.44526331739007,0.7978003081255379,36.84210526315789,3,0.4736842105263158,Ba_6_V4,F,1_R,TTTGGACCAGTTTCTGTATT,20,46.43218242932568,0.810881196189932,35.0,3,0.3,R,S144,BA-BaBTSeqBa007P2--xx-xxx-xxxx-021-SF,Ba,,339
53950,1_F,TACGTGGGATGCAAATAAA,1,19,46.44526331739007,0.14308157780418185,36.84210526315789,3,0.4736842105263158,Ba_5_V3,F,1_R,TTTGGACCAGTTTCTGTATT,20,46.43218242932568,0.13000068973978784,35.0,3,0.3,R,S5,A0615,Ba,,19
53949,1_F,TACGTGGGATGCAAATAAA,1,19,46.44526331739007,0.14308157780418185,36.84210526315789,3,0.4736842105263158,Ba_5_V3,F,1_R,TTTGGACCAGTTTCTGTATT,20,46.43218242932568,0.13000068973978784,35.0,3,0.3,R,S4,A0605,Ba,,3986
53948,1_F,TACGTGGGATGCAAATAAA,1,19,46.44526331739007,0.14308157780418185,36.84210526315789,3,0.4736842105263158,Ba_5_V3,F,1_R,TTTGGACCAGTTTCTGTATT,20,46.43218242932568,0.13000068973978784,35.0,3,0.3,R,S2,A0330,Ba,,12
53947,1_F,TACGTGGGATGCAAATAAA,1,19,46.44526331739007,0.14308157780418185,36.84210526315789,3,0.4736842105263158,Ba_5_V3,F,1_R,TTTGGACCAGTTTCTGTATT,20,46.43218242932568,0.13000068973978784,35.0,3,0.3,R,S6,A0706,Ba,,8
54019,1_F,TACGTGGGATGCAAATAAA,1,19,46.44526331739007,0.14308157780418185,36.84210526315789,3,0.4736842105263158,Ba_5_V3,F,1_R,TTTGGACCAGTTTCTGTATT,20,46.43218242932568,0.13000068973978784,35.0,3,0.3,R,S144,BA-BaBTSeqBa007P2--xx-xxx-xxxx-021-SF,Ba,,339
55235,1_F,GTAACCTCTTCTCTGCGG,1,18,48.86069998946351,3.1365302310208776,55.555555555555564,2,0.0,Yp_2,F,1_R,AGTGCGATCTCAATCATGTC,20,49.95907848332661,2.0381517371577833,45.0,2,0.0,R,S6,A0706,Ba,,8
55236,1_F,GTAACCTCTTCTCTGCGG,1,18,48.86069998946351,3.1365302310208776,55.555555555555564,2,0.0,Yp_2,F,1_R,AGTGCGATCTCAATCATGTC,20,49.95907848332661,2.0381517371577833,45.0,2,0.0,R,S2,A0330,Ba,,12
55237,1_F,GTAACCTCTTCTCTGCGG,1,18,48.86069998946351,3.1365302310208776,55.555555555555564,2,0.0,Yp_2,F,1_R,AGTGCGATCTCAATCATGTC,20,49.95907848332661,2.0381517371577833,45.0,2,0.0,R,S4,A0605,Ba,,3986
55238,1_F,GTAACCTCTTCTCTGCGG,1,18,48.86069998946351,3.1365302310208776,55.555555555555564,2,0.0,Yp_2,F,1_R,AGTGCGATCTCAATCATGTC,20,49.95907848332661,2.0381517371577833,45.0,2,0.0,R,S5,A0615,Ba,,19
55146,1_F,TTCTACACACCAGATCCA,1,18,46.03479961975523,5.390090132887452,44.444444444444436,2,0.0,Yp_1,F,1_R,TTCCAGTGCGATCTCAATC,19,49.3368731649507,2.088016587691982,47.368421052631575,2,0.0,R,S144,BA-BaBTSeqBa007P2--xx-xxx-xxxx-021-SF,Ba,,339
54271,1_F,TACGTGGGATGCAAATAAA,1,19,46.44526331739007,0.7698603433525406,36.84210526315789,3,0.4736842105263158,Ba_V45,F,1_R,TTTGGACCAGTTTCTGTATT,20,46.43218242932568,0.7829412314169346,35.0,3,0.3,R,S4,A0605,Ba,,3986
54270,1_F,TACGTGGGATGCAAATAAA,1,19,46.44526331739007,0.7698603433525406,36.84210526315789,3,0.4736842105263158,Ba_V45,F,1_R,TTTGGACCAGTTTCTGTATT,20,46.43218242932568,0.7829412314169346,35.0,3,0.3,R,S2,A0330,Ba,,12
54269,1_F,TACGTGGGATGCAAATAAA,1,19,46.44526331739007,0.7698603433525406,36.84210526315789,3,0.4736842105263158,Ba_V45,F,1_R,TTTGGACCAGTTTCTGTATT,20,46.43218242932568,0.7829412314169346,35.0,3,0.3,R,S6,A0706,Ba,,8
55307,1_F,GTAACCTCTTCTCTGCGG,1,18,48.86069998946351,3.1365302310208776,55.555555555555564,2,0.0,Yp_2,F,1_R,AGTGCGATCTCAATCATGTC,20,49.95907848332661,2.0381517371577833,45.0,2,0.0,R,S144,BA-BaBTSeqBa007P2--xx-xxx-xxxx-021-SF,Ba,,339
53375,1_F,TACGTGGGATGCAAATAAA,1,19,46.44526331739007,1.608955191633072,36.84210526315789,3,0.4736842105263158,Ba_2,F,1_R,TTTGGACCAGTTTCTGTATT,20,46.43218242932568,1.5958743035686782,35.0,3,0.3,R,S144,BA-BaBTSeqBa007P2--xx-xxx-xxxx-021-SF,Ba,,339
53467,1_F,TACGTGGGATGCAAATAAA,1,19,46.44526331739007,1.608955191633072,36.84210526315789,3,0.4736842105263158,Ba_3,F,1_R,TTTGGACCAGTTTCTGTATT,20,46.43218242932568,1.5958743035686782,35.0,3,0.3,R,S5,A0615,Ba,,19
53465,1_F,TACGTGGGATGCAAATAAA,1,19,46.44526331739007,1.608955191633072,36.84210526315789,3,0.4736842105263158,Ba_3,F,1_R,TTTGGACCAGTTTCTGTATT,20,46.43218242932568,1.5958743035686782,35.0,3,0.3,R,S2,A0330,Ba,,12
53464,1_F,TACGTGGGATGCAAATAAA,1,19,46.44526331739007,1.608955191633072,36.84210526315789,3,0.4736842105263158,Ba_3,F,1_R,TTTGGACCAGTTTCTGTATT,20,46.43218242932568,1.5958743035686782,35.0,3,0.3,R,S6,A0706,Ba,,8
53466,1_F,TACGTGGGATGCAAATAAA,1,19,46.44526331739007,1.608955191633072,36.84210526315789,3,0.4736842105263158,Ba_3,F,1_R,TTTGGACCAGTTTCTGTATT,20,46.43218242932568,1.5958743035686782,35.0,3,0.3,R,S4,A0605,Ba,,3986
53214,1_F,TACGTGGGATGCAAATAAA,1,19,46.44526331739007,1.608955191633072,36.84210526315789,3,0.4736842105263158,Ba_1,F,1_R,TTTGGACCAGTTTCTGTATT,20,46.43218242932568,1.5958743035686782,35.0,3,0.3,R,S144,BA-BaBTSeqBa007P2--xx-xxx-xxxx-021-SF,Ba,,339
53145,1_F,TACGTGGGATGCAAATAAA,1,19,46.44526331739007,1.608955191633072,36.84210526315789,3,0.4736842105263158,Ba_1,F,1_R,TTTGGACCAGTTTCTGTATT,20,46.43218242932568,1.5958743035686782,35.0,3,0.3,R,S5,A0615,Ba,,19
53144,1_F,TACGTGGGATGCAAATAAA,1,19,46.44526331739007,1.608955191633072,36.84210526315789,3,0.4736842105263158,Ba_1,F,1_R,TTTGGACCAGTTTCTGTATT,20,46.43218242932568,1.5958743035686782,35.0,3,0.3,R,S4,A0605,Ba,,3986
53143,1_F,TACGTGGGATGCAAATAAA,1,19,46.44526331739007,1.608955191633072,36.84210526315789,3,0.4736842105263158,Ba_1,F,1_R,TTTGGACCAGTTTCTGTATT,20,46.43218242932568,1.5958743035686782,35.0,3,0.3,R,S2,A0330,Ba,,12
53142,1_F,TACGTGGGATGCAAATAAA,1,19,46.44526331739007,1.608955191633072,36.84210526315789,3,0.4736842105263158,Ba_1,F,1_R,TTTGGACCAGTTTCTGTATT,20,46.43218242932568,1.5958743035686782,35.0,3,0.3,R,S6,A0706,Ba,,8
53306,1_F,TACGTGGGATGCAAATAAA,1,19,46.44526331739007,1.608955191633072,36.84210526315789,3,0.4736842105263158,Ba_2,F,1_R,TTTGGACCAGTTTCTGTATT,20,46.43218242932568,1.5958743035686782,35.0,3,0.3,R,S5,A0615,Ba,,19
53305,1_F,TACGTGGGATGCAAATAAA,1,19,46.44526331739007,1.608955191633072,36.84210526315789,3,0.4736842105263158,Ba_2,F,1_R,TTTGGACCAGTTTCTGTATT,20,46.43218242932568,1.5958743035686782,35.0,3,0.3,R,S4,A0605,Ba,,3986
53304,1_F,TACGTGGGATGCAAATAAA,1,19,46.44526331739007,1.608955191633072,36.84210526315789,3,0.4736842105263158,Ba_2,F,1_R,TTTGGACCAGTTTCTGTATT,20,46.43218242932568,1.5958743035686782,35.0,3,0.3,R,S2,A0330,Ba,,12
53303,1_F,TACGTGGGATGCAAATAAA,1,19,46.44526331739007,1.608955191633072,36.84210526315789,3,0.4736842105263158,Ba_2,F,1_R,TTTGGACCAGTTTCTGTATT,20,46.43218242932568,1.5958743035686782,35.0,3,0.3,R,S6,A0706,Ba,,8
53697,1_F,TACGTGGGATGCAAATAAA,1,19,46.44526331739007,0.14308157780418185,36.84210526315789,3,0.4736842105263158,Ba_4,F,1_R,TTTGGACCAGTTTCTGTATT,20,46.43218242932568,0.13000068973978784,35.0,3,0.3,R,S144,BA-BaBTSeqBa007P2--xx-xxx-xxxx-021-SF,Ba,,339
53858,1_F,TACGTGGGATGCAAATAAA,1,19,46.44526331739007,0.027254129723139897,36.84210526315789,3,0.4736842105263158,Ba_5_V35,F,1_R,TTTGGACCAGTTTCTGTATT,20,46.43218242932568,0.0403350177875339,35.0,3,0.3,R,S144,BA-BaBTSeqBa007P2--xx-xxx-xxxx-021-SF,Ba,,339
53789,1_F,TACGTGGGATGCAAATAAA,1,19,46.44526331739007,0.027254129723139897,36.84210526315789,3,0.4736842105263158,Ba_5_V35,F,1_R,TTTGGACCAGTTTCTGTATT,20,46.43218242932568,0.0403350177875339,35.0,3,0.3,R,S5,A0615,Ba,,19
53788,1_F,TACGTGGGATGCAAATAAA,1,19,46.44526331739007,0.027254129723139897,36.84210526315789,3,0.4736842105263158,Ba_5_V35,F,1_R,TTTGGACCAGTTTCTGTATT,20,46.43218242932568,0.0403350177875339,35.0,3,0.3,R,S4,A0605,Ba,,3986
53787,1_F,TACGTGGGATGCAAATAAA,1,19,46.44526331739007,0.027254129723139897,36.84210526315789,3,0.4736842105263158,Ba_5_V35,F,1_R,TTTGGACCAGTTTCTGTATT,20,46.43218242932568,0.0403350177875339,35.0,3,0.3,R,S2,A0330,Ba,,12
53786,1_F,TACGTGGGATGCAAATAAA,1,19,46.44526331739007,0.027254129723139897,36.84210526315789,3,0.4736842105263158,Ba_5_V35,F,1_R,TTTGGACCAGTTTCTGTATT,20,46.43218242932568,0.0403350177875339,35.0,3,0.3,R,S6,A0706,Ba,,8
53536,1_F,TACGTGGGATGCAAATAAA,1,19,46.44526331739007,1.608955191633072,36.84210526315789,3,0.4736842105263158,Ba_3,F,1_R,TTTGGACCAGTTTCTGTATT,20,46.43218242932568,1.5958743035686782,35.0,3,0.3,R,S144,BA-BaBTSeqBa007P2--xx-xxx-xxxx-021-SF,Ba,,339
53628,1_F,TACGTGGGATGCAAATAAA,1,19,46.44526331739007,0.14308157780418185,36.84210526315789,3,0.4736842105263158,Ba_4,F,1_R,TTTGGACCAGTTTCTGTATT,20,46.43218242932568,0.13000068973978784,35.0,3,0.3,R,S5,A0615,Ba,,19
53627,1_F,TACGTGGGATGCAAATAAA,1,19,46.44526331739007,0.14308157780418185,36.84210526315789,3,0.4736842105263158,Ba_4,F,1_R,TTTGGACCAGTTTCTGTATT,20,46.43218242932568,0.13000068973978784,35.0,3,0.3,R,S4,A0605,Ba,,3986
53626,1_F,TACGTGGGATGCAAATAAA,1,19,46.44526331739007,0.14308157780418185,36.84210526315789,3,0.4736842105263158,Ba_4,F,1_R,TTTGGACCAGTTTCTGTATT,20,46.43218242932568,0.13000068973978784,35.0,3,0.3,R,S2,A0330,Ba,,12
53625,1_F,TACGTGGGATGCAAATAAA,1,19,46.44526331739007,0.14308157780418185,36.84210526315789,3,0.4736842105263158,Ba_4,F,1_R,TTTGGACCAGTTTCTGTATT,20,46.43218242932568,0.13000068973978784,35.0,3,0.3,R,S6,A0706,Ba,,8
54752,1_F,GAGGCGGCTATAGAGGCAATATTAA,1,25,54.423855209257745,4.151079369847729,44.0,2,0.0,Ft_2,F,1_R,TCTTCTTCTGCAAGTCCATCTT,22,51.437963541347806,1.1651877019378034,40.90909090909091,2,0.0,R,S6,A0706,Ba,,8
54753,1_F,GAGGCGGCTATAGAGGCAATATTAA,1,25,54.423855209257745,4.151079369847729,44.0,2,0.0,Ft_2,F,1_R,TCTTCTTCTGCAAGTCCATCTT,22,51.437963541347806,1.1651877019378034,40.90909090909091,2,0.0,R,S2,A0330,Ba,,12
54754,1_F,GAGGCGGCTATAGAGGCAATATTAA,1,25,54.423855209257745,4.151079369847729,44.0,2,0.0,Ft_2,F,1_R,TCTTCTTCTGCAAGTCCATCTT,22,51.437963541347806,1.1651877019378034,40.90909090909091,2,0.0,R,S4,A0605,Ba,,3986
54755,1_F,GAGGCGGCTATAGAGGCAATATTAA,1,25,54.423855209257745,4.151079369847729,44.0,2,0.0,Ft_2,F,1_R,TCTTCTTCTGCAAGTCCATCTT,22,51.437963541347806,1.1651877019378034,40.90909090909091,2,0.0,R,S5,A0615,Ba,,19
54663,1_F,GAGGCGGCTATAGAGGCAATATTAA,1,25,54.423855209257745,4.3666673654438455,44.0,2,0.0,Ft_2_V2,F,1_R,TCTTCTTCTGCAAGTCCATCTT,22,51.437963541347806,1.3807756975339205,40.90909090909091,2,0.0,R,S144,BA-BaBTSeqBa007P2--xx-xxx-xxxx-021-SF,Ba,,339
54913,1_F,TTCTACACACCAGATCCA,1,18,46.03479961975523,5.131412034928879,44.444444444444436,2,0.0,Yp_1_V2,F,1_R,TTCCAGTGCGATCTCAATC,19,49.3368731649507,1.8293384897334093,47.368421052631575,2,0.0,R,S6,A0706,Ba,,8
54914,1_F,TTCTACACACCAGATCCA,1,18,46.03479961975523,5.131412034928879,44.444444444444436,2,0.0,Yp_1_V2,F,1_R,TTCCAGTGCGATCTCAATC,19,49.3368731649507,1.8293384897334093,47.368421052631575,2,0.0,R,S2,A0330,Ba,,12
54915,1_F,TTCTACACACCAGATCCA,1,18,46.03479961975523,5.131412034928879,44.444444444444436,2,0.0,Yp_1_V2,F,1_R,TTCCAGTGCGATCTCAATC,19,49.3368731649507,1.8293384897334093,47.368421052631575,2,0.0,R,S4,A0605,Ba,,3986
54916,1_F,TTCTACACACCAGATCCA,1,18,46.03479961975523,5.131412034928879,44.444444444444436,2,0.0,Yp_1_V2,F,1_R,TTCCAGTGCGATCTCAATC,19,49.3368731649507,1.8293384897334093,47.368421052631575,2,0.0,R,S5,A0615,Ba,,19
54985,1_F,TTCTACACACCAGATCCA,1,18,46.03479961975523,5.131412034928879,44.444444444444436,2,0.0,Yp_1_V2,F,1_R,TTCCAGTGCGATCTCAATC,19,49.3368731649507,1.8293384897334093,47.368421052631575,2,0.0,R,S144,BA-BaBTSeqBa007P2--xx-xxx-xxxx-021-SF,Ba,,339
54824,1_F,GAGGCGGCTATAGAGGCAATATTAA,1,25,54.423855209257745,4.151079369847729,44.0,2,0.0,Ft_2,F,1_R,TCTTCTTCTGCAAGTCCATCTT,22,51.437963541347806,1.1651877019378034,40.90909090909091,2,0.0,R,S144,BA-BaBTSeqBa007P2--xx-xxx-xxxx-021-SF,Ba,,339
54433,1_F,AGATCCTGCAAGTAGTGAGT,1,20,49.69158076115036,0.8352891609263438,45.0,2,0.0,Ft_1,F,1_R,TCTTCTGCAAGTCCATCTTCTAT,23,51.08570396524868,2.2294123650246647,39.130434782608695,2,0.0,R,S5,A0615,Ba,,19
54432,1_F,AGATCCTGCAAGTAGTGAGT,1,20,49.69158076115036,0.8352891609263438,45.0,2,0.0,Ft_1,F,1_R,TCTTCTGCAAGTCCATCTTCTAT,23,51.08570396524868,2.2294123650246647,39.130434782608695,2,0.0,R,S4,A0605,Ba,,3986
54431,1_F,AGATCCTGCAAGTAGTGAGT,1,20,49.69158076115036,0.8352891609263438,45.0,2,0.0,Ft_1,F,1_R,TCTTCTGCAAGTCCATCTTCTAT,23,51.08570396524868,2.2294123650246647,39.130434782608695,2,0.0,R,S2,A0330,Ba,,12
54430,1_F,AGATCCTGCAAGTAGTGAGT,1,20,49.69158076115036,0.8352891609263438,45.0,2,0.0,Ft_1,F,1_R,TCTTCTGCAAGTCCATCTTCTAT,23,51.08570396524868,2.2294123650246647,39.130434782608695,2,0.0,R,S6,A0706,Ba,,8
54341,1_F,TACGTGGGATGCAAATAAA,1,19,46.44526331739007,0.7698603433525406,36.84210526315789,3,0.4736842105263158,Ba_V45,F,1_R,TTTGGACCAGTTTCTGTATT,20,46.43218242932568,0.7829412314169346,35.0,3,0.3,R,S144,BA-BaBTSeqBa007P2--xx-xxx-xxxx-021-SF,Ba,,339
54591,1_F,GAGGCGGCTATAGAGGCAATATTAA,1,25,54.423855209257745,4.3666673654438455,44.0,2,0.0,Ft_2_V2,F,1_R,TCTTCTTCTGCAAGTCCATCTT,22,51.437963541347806,1.3807756975339205,40.90909090909091,2,0.0,R,S6,A0706,Ba,,8
54592,1_F,GAGGCGGCTATAGAGGCAATATTAA,1,25,54.423855209257745,4.3666673654438455,44.0,2,0.0,Ft_2_V2,F,1_R,TCTTCTTCTGCAAGTCCATCTT,22,51.437963541347806,1.3807756975339205,40.90909090909091,2,0.0,R,S2,A0330,Ba,,12
54593,1_F,GAGGCGGCTATAGAGGCAATATTAA,1,25,54.423855209257745,4.3666673654438455,44.0,2,0.0,Ft_2_V2,F,1_R,TCTTCTTCTGCAAGTCCATCTT,22,51.437963541347806,1.3807756975339205,40.90909090909091,2,0.0,R,S4,A0605,Ba,,3986
54594,1_F,GAGGCGGCTATAGAGGCAATATTAA,1,25,54.423855209257745,4.3666673654438455,44.0,2,0.0,Ft_2_V2,F,1_R,TCTTCTTCTGCAAGTCCATCTT,22,51.437963541347806,1.3807756975339205,40.90909090909091,2,0.0,R,S5,A0615,Ba,,19
54502,1_F,AGATCCTGCAAGTAGTGAGT,1,20,49.69158076115036,0.8352891609263438,45.0,2,0.0,Ft_1,F,1_R,TCTTCTGCAAGTCCATCTTCTAT,23,51.08570396524868,2.2294123650246647,39.130434782608695,2,0.0,R,S144,BA-BaBTSeqBa007P2--xx-xxx-xxxx-021-SF,Ba,,339
55077,1_F,TTCTACACACCAGATCCA,1,18,46.03479961975523,5.390090132887452,44.444444444444436,2,0.0,Yp_1,F,1_R,TTCCAGTGCGATCTCAATC,19,49.3368731649507,2.088016587691982,47.368421052631575,2,0.0,R,S5,A0615,Ba,,19
55076,1_F,TTCTACACACCAGATCCA,1,18,46.03479961975523,5.390090132887452,44.444444444444436,2,0.0,Yp_1,F,1_R,TTCCAGTGCGATCTCAATC,19,49.3368731649507,2.088016587691982,47.368421052631575,2,0.0,R,S4,A0605,Ba,,3986
55075,1_F,TTCTACACACCAGATCCA,1,18,46.03479961975523,5.390090132887452,44.444444444444436,2,0.0,Yp_1,F,1_R,TTCCAGTGCGATCTCAATC,19,49.3368731649507,2.088016587691982,47.368421052631575,2,0.0,R,S2,A0330,Ba,,12
55074,1_F,TTCTACACACCAGATCCA,1,18,46.03479961975523,5.390090132887452,44.444444444444436,2,0.0,Yp_1,F,1_R,TTCCAGTGCGATCTCAATC,19,49.3368731649507,2.088016587691982,47.368421052631575,2,0.0,R,S6,A0706,Ba,,8
3795,2_F,GGAACAACTGCTGAACAACCTT,2,22,53.71542509064068,2.549213435956567,45.45454545454545,2,0.0,Yp_1_V2,F,2_R,ATTACAACAAACGGCACAT,19,47.75386627584039,3.412345378843732,36.84210526315789,3,0.15789473684210525,R,S2,A0330,Ba,,0
3794,2_F,GGAACAACTGCTGAACAACCTT,2,22,53.71542509064068,2.549213435956567,45.45454545454545,2,0.0,Yp_1_V2,F,2_R,ATTACAACAAACGGCACAT,19,47.75386627584039,3.412345378843732,36.84210526315789,3,0.15789473684210525,R,S6,A0706,Ba,,2
3793,2_F,GGAACAACTGCTGAACAACCTT,2,22,53.71542509064068,2.549213435956567,45.45454545454545,2,0.0,Yp_1_V2,F,2_R,ATTACAACAAACGGCACAT,19,47.75386627584039,3.412345378843732,36.84210526315789,3,0.15789473684210525,R,S4,A0605,Ba,,1758
3796,2_F,GGAACAACTGCTGAACAACCTT,2,22,53.71542509064068,2.549213435956567,45.45454545454545,2,0.0,Yp_1_V2,F,2_R,ATTACAACAAACGGCACAT,19,47.75386627584039,3.412345378843732,36.84210526315789,3,0.15789473684210525,R,S5,A0615,Ba,,1
3870,2_F,GGAACAACTGCTGAACAACCTT,2,22,53.71542509064068,2.549213435956567,45.45454545454545,2,0.0,Yp_1_V2,F,2_R,ATTACAACAAACGGCACAT,19,47.75386627584039,3.412345378843732,36.84210526315789,3,0.15789473684210525,R,S144,BA-BaBTSeqBa007P2--xx-xxx-xxxx-021-SF,Ba,,37
3671,2_F,AAGATTAAACTCTCACTCAAAG,2,22,46.054796755394314,4.217979084015703,31.818181818181817,3,0.2727272727272727,Ft_2,F,2_R,AATGGTTTTATATGCTTGGAA,21,45.46773377857306,4.805042060836946,28.57142857142857,4,0.19047619047619047,R,S144,BA-BaBTSeqBa007P2--xx-xxx-xxxx-021-SF,Ba,,37
4194,2_F,TGATCGCACCATTGACAGC,2,19,52.85494174729217,0.8577115268077833,52.631578947368425,2,0.0,Yp_2,F,2_R,AATTACAACAAACGGCACATCT,22,51.31930347827626,0.6779267422081361,36.36363636363637,3,0.13636363636363635,R,S5,A0615,Ba,,1
4193,2_F,TGATCGCACCATTGACAGC,2,19,52.85494174729217,0.8577115268077833,52.631578947368425,2,0.0,Yp_2,F,2_R,AATTACAACAAACGGCACATCT,22,51.31930347827626,0.6779267422081361,36.36363636363637,3,0.13636363636363635,R,S2,A0330,Ba,,0
4192,2_F,TGATCGCACCATTGACAGC,2,19,52.85494174729217,0.8577115268077833,52.631578947368425,2,0.0,Yp_2,F,2_R,AATTACAACAAACGGCACATCT,22,51.31930347827626,0.6779267422081361,36.36363636363637,3,0.13636363636363635,R,S6,A0706,Ba,,2
4191,2_F,TGATCGCACCATTGACAGC,2,19,52.85494174729217,0.8577115268077833,52.631578947368425,2,0.0,Yp_2,F,2_R,AATTACAACAAACGGCACATCT,22,51.31930347827626,0.6779267422081361,36.36363636363637,3,0.13636363636363635,R,S4,A0605,Ba,,1758
4268,2_F,TGATCGCACCATTGACAGC,2,19,52.85494174729217,0.8577115268077833,52.631578947368425,2,0.0,Yp_2,F,2_R,AATTACAACAAACGGCACATCT,22,51.31930347827626,0.6779267422081361,36.36363636363637,3,0.13636363636363635,R,S144,BA-BaBTSeqBa007P2--xx-xxx-xxxx-021-SF,Ba,,37
3995,2_F,GGAACAACTGCTGAACAACCTT,2,22,53.71542509064068,2.2905353379979942,45.45454545454545,2,0.0,Yp_1,F,2_R,ATTACAACAAACGGCACAT,19,47.75386627584039,3.671023476802304,36.84210526315789,3,0.15789473684210525,R,S5,A0615,Ba,,1
3994,2_F,GGAACAACTGCTGAACAACCTT,2,22,53.71542509064068,2.2905353379979942,45.45454545454545,2,0.0,Yp_1,F,2_R,ATTACAACAAACGGCACAT,19,47.75386627584039,3.671023476802304,36.84210526315789,3,0.15789473684210525,R,S2,A0330,Ba,,0
3993,2_F,GGAACAACTGCTGAACAACCTT,2,22,53.71542509064068,2.2905353379979942,45.45454545454545,2,0.0,Yp_1,F,2_R,ATTACAACAAACGGCACAT,19,47.75386627584039,3.671023476802304,36.84210526315789,3,0.15789473684210525,R,S6,A0706,Ba,,2
3992,2_F,GGAACAACTGCTGAACAACCTT,2,22,53.71542509064068,2.2905353379979942,45.45454545454545,2,0.0,Yp_1,F,2_R,ATTACAACAAACGGCACAT,19,47.75386627584039,3.671023476802304,36.84210526315789,3,0.15789473684210525,R,S4,A0605,Ba,,1758
4069,2_F,GGAACAACTGCTGAACAACCTT,2,22,53.71542509064068,2.2905353379979942,45.45454545454545,2,0.0,Yp_1,F,2_R,ATTACAACAAACGGCACAT,19,47.75386627584039,3.671023476802304,36.84210526315789,3,0.15789473684210525,R,S144,BA-BaBTSeqBa007P2--xx-xxx-xxxx-021-SF,Ba,,37
1408,2_F,AGACAACGAGTTGCATTT,2,18,46.7476271636849,0.4454454240990202,38.888888888888886,3,0.16666666666666666,Ba_4,F,2_R,AAATTACTGTCTTTTCTTCC,20,43.08435689616829,3.2178248434176027,30.0,4,0.35,R,S5,A0615,Ba,,1
1407,2_F,AGACAACGAGTTGCATTT,2,18,46.7476271636849,0.4454454240990202,38.888888888888886,3,0.16666666666666666,Ba_4,F,2_R,AAATTACTGTCTTTTCTTCC,20,43.08435689616829,3.2178248434176027,30.0,4,0.35,R,S2,A0330,Ba,,0
1406,2_F,AGACAACGAGTTGCATTT,2,18,46.7476271636849,0.4454454240990202,38.888888888888886,3,0.16666666666666666,Ba_4,F,2_R,AAATTACTGTCTTTTCTTCC,20,43.08435689616829,3.2178248434176027,30.0,4,0.35,R,S6,A0706,Ba,,2