,Primer_Name_L,Seq_L,Amplicon,Primer_Length_L,Tm_L,Delta Tm_L,GC_Content_L,Length_Longest_Homopolymer_L,Percent_Homopolymer_L,exp,flank_L,Primer_Name_R,Seq_R,Primer_Length_R,Tm_R,Delta Tm_R,GC_Content_R,Length_Longest_Homopolymer_R,Percent_Homopolymer_R,flank_R,sample_id,sample_name,species,strain,n_reads
52346,56_F,GAAACGAATGGATGCAAA,56,18,45.74415065780983,0.7283667893033865,38.888888888888886,3,0.3333333333333333,Ba_5_V35,F,56_R,AAGAGGTGGTTTCGTT,16,43.6359804247844,2.8365370223288053,43.75,3,0.1875,R,S144,BA-BaBTSeqBa007P2--xx-xxx-xxxx-021-SF,Ba,,54
52462,56_F,TACGATTCTTGAAACACCTT,56,20,46.702111988520244,0.5409516369953664,35.0,3,0.15,Ba_6_V4,F,56_R,GGTGGTTTCGTTGGAGA,17,48.12238396614492,0.8793203406293131,52.941176470588246,3,0.17647058823529413,R,S6,A0706,Ba,,0
52556,56_F,TACGATTCTTGAAACACCTT,56,20,46.702111988520244,0.513011672222369,35.0,3,0.15,Ba_V45,F,56_R,GGTGGTTTCGTTGGAGA,17,48.12238396614492,0.9072603054023104,52.941176470588246,3,0.17647058823529413,R,S4,A0605,Ba,,71
52622,56_F,TACGATTCTTGAAACACCTT,56,20,46.702111988520244,0.513011672222369,35.0,3,0.15,Ba_V45,F,56_R,GGTGGTTTCGTTGGAGA,17,48.12238396614492,0.9072603054023104,52.941176470588246,3,0.17647058823529413,R,S144,BA-BaBTSeqBa007P2--xx-xxx-xxxx-021-SF,Ba,,54
52555,56_F,TACGATTCTTGAAACACCTT,56,20,46.702111988520244,0.513011672222369,35.0,3,0.15,Ba_V45,F,56_R,GGTGGTTTCGTTGGAGA,17,48.12238396614492,0.9072603054023104,52.941176470588246,3,0.17647058823529413,R,S5,A0615,Ba,,0
52461,56_F,TACGATTCTTGAAACACCTT,56,20,46.702111988520244,0.5409516369953664,35.0,3,0.15,Ba_6_V4,F,56_R,GGTGGTTTCGTTGGAGA,17,48.12238396614492,0.8793203406293131,52.941176470588246,3,0.17647058823529413,R,S2,A0330,Ba,,0
52554,56_F,TACGATTCTTGAAACACCTT,56,20,46.702111988520244,0.513011672222369,35.0,3,0.15,Ba_V45,F,56_R,GGTGGTTTCGTTGGAGA,17,48.12238396614492,0.9072603054023104,52.941176470588246,3,0.17647058823529413,R,S6,A0706,Ba,,0
52463,56_F,TACGATTCTTGAAACACCTT,56,20,46.702111988520244,0.5409516369953664,35.0,3,0.15,Ba_6_V4,F,56_R,GGTGGTTTCGTTGGAGA,17,48.12238396614492,0.8793203406293131,52.941176470588246,3,0.17647058823529413,R,S5,A0615,Ba,,0
52464,56_F,TACGATTCTTGAAACACCTT,56,20,46.702111988520244,0.5409516369953664,35.0,3,0.15,Ba_6_V4,F,56_R,GGTGGTTTCGTTGGAGA,17,48.12238396614492,0.8793203406293131,52.941176470588246,3,0.17647058823529413,R,S4,A0605,Ba,,71
52530,56_F,TACGATTCTTGAAACACCTT,56,20,46.702111988520244,0.5409516369953664,35.0,3,0.15,Ba_6_V4,F,56_R,GGTGGTTTCGTTGGAGA,17,48.12238396614492,0.8793203406293131,52.941176470588246,3,0.17647058823529413,R,S144,BA-BaBTSeqBa007P2--xx-xxx-xxxx-021-SF,Ba,,54
52553,56_F,TACGATTCTTGAAACACCTT,56,20,46.702111988520244,0.513011672222369,35.0,3,0.15,Ba_V45,F,56_R,GGTGGTTTCGTTGGAGA,17,48.12238396614492,0.9072603054023104,52.941176470588246,3,0.17647058823529413,R,S2,A0330,Ba,,0
52279,56_F,GAAACGAATGGATGCAAA,56,18,45.74415065780983,0.7283667893033865,38.888888888888886,3,0.3333333333333333,Ba_5_V35,F,56_R,AAGAGGTGGTTTCGTT,16,43.6359804247844,2.8365370223288053,43.75,3,0.1875,R,S5,A0615,Ba,,0
52278,56_F,GAAACGAATGGATGCAAA,56,18,45.74415065780983,0.7283667893033865,38.888888888888886,3,0.3333333333333333,Ba_5_V35,F,56_R,AAGAGGTGGTTTCGTT,16,43.6359804247844,2.8365370223288053,43.75,3,0.1875,R,S6,A0706,Ba,,0
52096,56_F,ATAAATGGCGTAAAAACAAAT,56,21,44.833661749268124,0.0026463764888831065,23.809523809523807,5,0.5238095238095238,Ba_3,F,56_R,CTGAATAAGGGCTTTTCA,18,43.6467422200546,1.189565905702409,38.888888888888886,4,0.3888888888888889,R,S4,A0605,Ba,,71
52095,56_F,ATAAATGGCGTAAAAACAAAT,56,21,44.833661749268124,0.0026463764888831065,23.809523809523807,5,0.5238095238095238,Ba_3,F,56_R,CTGAATAAGGGCTTTTCA,18,43.6467422200546,1.189565905702409,38.888888888888886,4,0.3888888888888889,R,S5,A0615,Ba,,0
52094,56_F,ATAAATGGCGTAAAAACAAAT,56,21,44.833661749268124,0.0026463764888831065,23.809523809523807,5,0.5238095238095238,Ba_3,F,56_R,CTGAATAAGGGCTTTTCA,18,43.6467422200546,1.189565905702409,38.888888888888886,4,0.3888888888888889,R,S6,A0706,Ba,,0
52093,56_F,ATAAATGGCGTAAAAACAAAT,56,21,44.833661749268124,0.0026463764888831065,23.809523809523807,5,0.5238095238095238,Ba_3,F,56_R,CTGAATAAGGGCTTTTCA,18,43.6467422200546,1.189565905702409,38.888888888888886,4,0.3888888888888889,R,S2,A0330,Ba,,0
52070,56_F,ATAAATGGCGTAAAAACAAAT,56,21,44.833661749268124,0.0026463764888831065,23.809523809523807,5,0.5238095238095238,Ba_2,F,56_R,CTGAATAAGGGCTTTTCA,18,43.6467422200546,1.189565905702409,38.888888888888886,4,0.3888888888888889,R,S144,BA-BaBTSeqBa007P2--xx-xxx-xxxx-021-SF,Ba,,54
52188,56_F,GAAACGAATGGATGCAAA,56,18,45.74415065780983,0.5580310817760648,38.888888888888886,3,0.3333333333333333,Ba_4,F,56_R,AAGAGGTGGTTTCGTT,16,43.6359804247844,2.666201314801484,43.75,3,0.1875,R,S4,A0605,Ba,,71
52187,56_F,GAAACGAATGGATGCAAA,56,18,45.74415065780983,0.5580310817760648,38.888888888888886,3,0.3333333333333333,Ba_4,F,56_R,AAGAGGTGGTTTCGTT,16,43.6359804247844,2.666201314801484,43.75,3,0.1875,R,S5,A0615,Ba,,0
52186,56_F,GAAACGAATGGATGCAAA,56,18,45.74415065780983,0.5580310817760648,38.888888888888886,3,0.3333333333333333,Ba_4,F,56_R,AAGAGGTGGTTTCGTT,16,43.6359804247844,2.666201314801484,43.75,3,0.1875,R,S6,A0706,Ba,,0
52185,56_F,GAAACGAATGGATGCAAA,56,18,45.74415065780983,0.5580310817760648,38.888888888888886,3,0.3333333333333333,Ba_4,F,56_R,AAGAGGTGGTTTCGTT,16,43.6359804247844,2.666201314801484,43.75,3,0.1875,R,S2,A0330,Ba,,0
52162,56_F,ATAAATGGCGTAAAAACAAAT,56,21,44.833661749268124,0.0026463764888831065,23.809523809523807,5,0.5238095238095238,Ba_3,F,56_R,CTGAATAAGGGCTTTTCA,18,43.6467422200546,1.189565905702409,38.888888888888886,4,0.3888888888888889,R,S144,BA-BaBTSeqBa007P2--xx-xxx-xxxx-021-SF,Ba,,54
51912,56_F,ATAAATGGCGTAAAAACAAAT,56,21,44.833661749268124,0.0026463764888831065,23.809523809523807,5,0.5238095238095238,Ba_1,F,56_R,CTGAATAAGGGCTTTTCA,18,43.6467422200546,1.189565905702409,38.888888888888886,4,0.3888888888888889,R,S4,A0605,Ba,,71
51911,56_F,ATAAATGGCGTAAAAACAAAT,56,21,44.833661749268124,0.0026463764888831065,23.809523809523807,5,0.5238095238095238,Ba_1,F,56_R,CTGAATAAGGGCTTTTCA,18,43.6467422200546,1.189565905702409,38.888888888888886,4,0.3888888888888889,R,S5,A0615,Ba,,0
51910,56_F,ATAAATGGCGTAAAAACAAAT,56,21,44.833661749268124,0.0026463764888831065,23.809523809523807,5,0.5238095238095238,Ba_1,F,56_R,CTGAATAAGGGCTTTTCA,18,43.6467422200546,1.189565905702409,38.888888888888886,4,0.3888888888888889,R,S6,A0706,Ba,,0
51909,56_F,ATAAATGGCGTAAAAACAAAT,56,21,44.833661749268124,0.0026463764888831065,23.809523809523807,5,0.5238095238095238,Ba_1,F,56_R,CTGAATAAGGGCTTTTCA,18,43.6467422200546,1.189565905702409,38.888888888888886,4,0.3888888888888889,R,S2,A0330,Ba,,0
52254,56_F,GAAACGAATGGATGCAAA,56,18,45.74415065780983,0.5580310817760648,38.888888888888886,3,0.3333333333333333,Ba_4,F,56_R,AAGAGGTGGTTTCGTT,16,43.6359804247844,2.666201314801484,43.75,3,0.1875,R,S144,BA-BaBTSeqBa007P2--xx-xxx-xxxx-021-SF,Ba,,54
52004,56_F,ATAAATGGCGTAAAAACAAAT,56,21,44.833661749268124,0.0026463764888831065,23.809523809523807,5,0.5238095238095238,Ba_2,F,56_R,CTGAATAAGGGCTTTTCA,18,43.6467422200546,1.189565905702409,38.888888888888886,4,0.3888888888888889,R,S4,A0605,Ba,,71
52003,56_F,ATAAATGGCGTAAAAACAAAT,56,21,44.833661749268124,0.0026463764888831065,23.809523809523807,5,0.5238095238095238,Ba_2,F,56_R,CTGAATAAGGGCTTTTCA,18,43.6467422200546,1.189565905702409,38.888888888888886,4,0.3888888888888889,R,S5,A0615,Ba,,0
52002,56_F,ATAAATGGCGTAAAAACAAAT,56,21,44.833661749268124,0.0026463764888831065,23.809523809523807,5,0.5238095238095238,Ba_2,F,56_R,CTGAATAAGGGCTTTTCA,18,43.6467422200546,1.189565905702409,38.888888888888886,4,0.3888888888888889,R,S6,A0706,Ba,,0
52001,56_F,ATAAATGGCGTAAAAACAAAT,56,21,44.833661749268124,0.0026463764888831065,23.809523809523807,5,0.5238095238095238,Ba_2,F,56_R,CTGAATAAGGGCTTTTCA,18,43.6467422200546,1.189565905702409,38.888888888888886,4,0.3888888888888889,R,S2,A0330,Ba,,0
52277,56_F,GAAACGAATGGATGCAAA,56,18,45.74415065780983,0.7283667893033865,38.888888888888886,3,0.3333333333333333,Ba_5_V35,F,56_R,AAGAGGTGGTTTCGTT,16,43.6359804247844,2.8365370223288053,43.75,3,0.1875,R,S2,A0330,Ba,,0
51978,56_F,ATAAATGGCGTAAAAACAAAT,56,21,44.833661749268124,0.0026463764888831065,23.809523809523807,5,0.5238095238095238,Ba_1,F,56_R,CTGAATAAGGGCTTTTCA,18,43.6467422200546,1.189565905702409,38.888888888888886,4,0.3888888888888889,R,S144,BA-BaBTSeqBa007P2--xx-xxx-xxxx-021-SF,Ba,,54
85651,57_F,CCTGTGTGCTTATTCTGAGTCG,57,22,53.33633041471786,7.034148675131958,50.0,2,0.0,Ba_5_V3,F,57_R,AGGATTCGGCGTTTTTTAT,19,47.204356781171036,0.9021750415851528,36.84210526315789,6,0.3157894736842105,R,S2,A0330,Ba,,0
85525,57_F,ACCTTGTAGAAGGAATAAGATA,57,22,45.45092576116053,0.6146176354035333,31.818181818181817,2,0.0,Ba_3,F,57_R,AATAAAAACGCCGATTCCAA,20,48.44852323256078,3.612215106803774,35.0,5,0.25,R,S4,A0605,Ba,,4
85526,57_F,ACCTTGTAGAAGGAATAAGATA,57,22,45.45092576116053,0.6146176354035333,31.818181818181817,2,0.0,Ba_3,F,57_R,AATAAAAACGCCGATTCCAA,20,48.44852323256078,3.612215106803774,35.0,5,0.25,R,S6,A0706,Ba,,0
85527,57_F,ACCTTGTAGAAGGAATAAGATA,57,22,45.45092576116053,0.6146176354035333,31.818181818181817,2,0.0,Ba_3,F,57_R,AATAAAAACGCCGATTCCAA,20,48.44852323256078,3.612215106803774,35.0,5,0.25,R,S2,A0330,Ba,,0
85528,57_F,ACCTTGTAGAAGGAATAAGATA,57,22,45.45092576116053,0.6146176354035333,31.818181818181817,2,0.0,Ba_3,F,57_R,AATAAAAACGCCGATTCCAA,20,48.44852323256078,3.612215106803774,35.0,5,0.25,R,S5,A0615,Ba,,0
85590,57_F,CCTGTGTGCTTATTCTGAGTCG,57,22,53.33633041471786,7.034148675131958,50.0,2,0.0,Ba_4,F,57_R,AGGATTCGGCGTTTTTTAT,19,47.204356781171036,0.9021750415851528,36.84210526315789,6,0.3157894736842105,R,S5,A0615,Ba,,0
85569,57_F,ACCTTGTAGAAGGAATAAGATA,57,22,45.45092576116053,0.6146176354035333,31.818181818181817,2,0.0,Ba_3,F,57_R,AATAAAAACGCCGATTCCAA,20,48.44852323256078,3.612215106803774,35.0,5,0.25,R,S144,BA-BaBTSeqBa007P2--xx-xxx-xxxx-021-SF,Ba,,6
85587,57_F,CCTGTGTGCTTATTCTGAGTCG,57,22,53.33633041471786,7.034148675131958,50.0,2,0.0,Ba_4,F,57_R,AGGATTCGGCGTTTTTTAT,19,47.204356781171036,0.9021750415851528,36.84210526315789,6,0.3157894736842105,R,S4,A0605,Ba,,4
85588,57_F,CCTGTGTGCTTATTCTGAGTCG,57,22,53.33633041471786,7.034148675131958,50.0,2,0.0,Ba_4,F,57_R,AGGATTCGGCGTTTTTTAT,19,47.204356781171036,0.9021750415851528,36.84210526315789,6,0.3157894736842105,R,S6,A0706,Ba,,0
85589,57_F,CCTGTGTGCTTATTCTGAGTCG,57,22,53.33633041471786,7.034148675131958,50.0,2,0.0,Ba_4,F,57_R,AGGATTCGGCGTTTTTTAT,19,47.204356781171036,0.9021750415851528,36.84210526315789,6,0.3157894736842105,R,S2,A0330,Ba,,0
85445,57_F,ACCTTGTAGAAGGAATAAGATA,57,22,45.45092576116053,0.6146176354035333,31.818181818181817,2,0.0,Ba_1,F,57_R,AATAAAAACGCCGATTCCAA,20,48.44852323256078,3.612215106803774,35.0,5,0.25,R,S144,BA-BaBTSeqBa007P2--xx-xxx-xxxx-021-SF,Ba,,6
85507,57_F,ACCTTGTAGAAGGAATAAGATA,57,22,45.45092576116053,0.6146176354035333,31.818181818181817,2,0.0,Ba_2,F,57_R,AATAAAAACGCCGATTCCAA,20,48.44852323256078,3.612215106803774,35.0,5,0.25,R,S144,BA-BaBTSeqBa007P2--xx-xxx-xxxx-021-SF,Ba,,6
85463,57_F,ACCTTGTAGAAGGAATAAGATA,57,22,45.45092576116053,0.6146176354035333,31.818181818181817,2,0.0,Ba_2,F,57_R,AATAAAAACGCCGATTCCAA,20,48.44852323256078,3.612215106803774,35.0,5,0.25,R,S4,A0605,Ba,,4
85464,57_F,ACCTTGTAGAAGGAATAAGATA,57,22,45.45092576116053,0.6146176354035333,31.818181818181817,2,0.0,Ba_2,F,57_R,AATAAAAACGCCGATTCCAA,20,48.44852323256078,3.612215106803774,35.0,5,0.25,R,S6,A0706,Ba,,0
85465,57_F,ACCTTGTAGAAGGAATAAGATA,57,22,45.45092576116053,0.6146176354035333,31.818181818181817,2,0.0,Ba_2,F,57_R,AATAAAAACGCCGATTCCAA,20,48.44852323256078,3.612215106803774,35.0,5,0.25,R,S2,A0330,Ba,,0
85466,57_F,ACCTTGTAGAAGGAATAAGATA,57,22,45.45092576116053,0.6146176354035333,31.818181818181817,2,0.0,Ba_2,F,57_R,AATAAAAACGCCGATTCCAA,20,48.44852323256078,3.612215106803774,35.0,5,0.25,R,S5,A0615,Ba,,0
85404,57_F,ACCTTGTAGAAGGAATAAGATA,57,22,45.45092576116053,0.6146176354035333,31.818181818181817,2,0.0,Ba_1,F,57_R,AATAAAAACGCCGATTCCAA,20,48.44852323256078,3.612215106803774,35.0,5,0.25,R,S5,A0615,Ba,,0
85773,57_F,GAGTCGTTTCCTTGGTCGG,57,19,52.550370225057584,5.335246564314964,57.894736842105274,3,0.15789473684210525,Ba_V45,F,57_R,GCCGATTCCAATTAAGGAT,19,47.000321335031224,0.21480232571138205,42.105263157894726,2,0.0,R,S4,A0605,Ba,,4
85774,57_F,GAGTCGTTTCCTTGGTCGG,57,19,52.550370225057584,5.335246564314964,57.894736842105274,3,0.15789473684210525,Ba_V45,F,57_R,GCCGATTCCAATTAAGGAT,19,47.000321335031224,0.21480232571138205,42.105263157894726,2,0.0,R,S6,A0706,Ba,,0
85775,57_F,GAGTCGTTTCCTTGGTCGG,57,19,52.550370225057584,5.335246564314964,57.894736842105274,3,0.15789473684210525,Ba_V45,F,57_R,GCCGATTCCAATTAAGGAT,19,47.000321335031224,0.21480232571138205,42.105263157894726,2,0.0,R,S2,A0330,Ba,,0
85776,57_F,GAGTCGTTTCCTTGGTCGG,57,19,52.550370225057584,5.335246564314964,57.894736842105274,3,0.15789473684210525,Ba_V45,F,57_R,GCCGATTCCAATTAAGGAT,19,47.000321335031224,0.21480232571138205,42.105263157894726,2,0.0,R,S5,A0615,Ba,,0
85755,57_F,GAGTCGTTTCCTTGGTCGG,57,19,52.550370225057584,5.307306599541967,57.894736842105274,3,0.15789473684210525,Ba_6_V4,F,57_R,GCCGATTCCAATTAAGGAT,19,47.000321335031224,0.24274229048437945,42.105263157894726,2,0.0,R,S144,BA-BaBTSeqBa007P2--xx-xxx-xxxx-021-SF,Ba,,6
85817,57_F,GAGTCGTTTCCTTGGTCGG,57,19,52.550370225057584,5.335246564314964,57.894736842105274,3,0.15789473684210525,Ba_V45,F,57_R,GCCGATTCCAATTAAGGAT,19,47.000321335031224,0.21480232571138205,42.105263157894726,2,0.0,R,S144,BA-BaBTSeqBa007P2--xx-xxx-xxxx-021-SF,Ba,,6
85649,57_F,CCTGTGTGCTTATTCTGAGTCG,57,22,53.33633041471786,7.034148675131958,50.0,2,0.0,Ba_5_V3,F,57_R,AGGATTCGGCGTTTTTTAT,19,47.204356781171036,0.9021750415851528,36.84210526315789,6,0.3157894736842105,R,S4,A0605,Ba,,4
85650,57_F,CCTGTGTGCTTATTCTGAGTCG,57,22,53.33633041471786,7.034148675131958,50.0,2,0.0,Ba_5_V3,F,57_R,AGGATTCGGCGTTTTTTAT,19,47.204356781171036,0.9021750415851528,36.84210526315789,6,0.3157894736842105,R,S6,A0706,Ba,,0
85652,57_F,CCTGTGTGCTTATTCTGAGTCG,57,22,53.33633041471786,7.034148675131958,50.0,2,0.0,Ba_5_V3,F,57_R,AGGATTCGGCGTTTTTTAT,19,47.204356781171036,0.9021750415851528,36.84210526315789,6,0.3157894736842105,R,S5,A0615,Ba,,0
85631,57_F,CCTGTGTGCTTATTCTGAGTCG,57,22,53.33633041471786,7.034148675131958,50.0,2,0.0,Ba_4,F,57_R,AGGATTCGGCGTTTTTTAT,19,47.204356781171036,0.9021750415851528,36.84210526315789,6,0.3157894736842105,R,S144,BA-BaBTSeqBa007P2--xx-xxx-xxxx-021-SF,Ba,,6
85711,57_F,GAGTCGTTTCCTTGGTCGG,57,19,52.550370225057584,5.307306599541967,57.894736842105274,3,0.15789473684210525,Ba_6_V4,F,57_R,GCCGATTCCAATTAAGGAT,19,47.000321335031224,0.24274229048437945,42.105263157894726,2,0.0,R,S4,A0605,Ba,,4
85712,57_F,GAGTCGTTTCCTTGGTCGG,57,19,52.550370225057584,5.307306599541967,57.894736842105274,3,0.15789473684210525,Ba_6_V4,F,57_R,GCCGATTCCAATTAAGGAT,19,47.000321335031224,0.24274229048437945,42.105263157894726,2,0.0,R,S6,A0706,Ba,,0
85713,57_F,GAGTCGTTTCCTTGGTCGG,57,19,52.550370225057584,5.307306599541967,57.894736842105274,3,0.15789473684210525,Ba_6_V4,F,57_R,GCCGATTCCAATTAAGGAT,19,47.000321335031224,0.24274229048437945,42.105263157894726,2,0.0,R,S2,A0330,Ba,,0
85714,57_F,GAGTCGTTTCCTTGGTCGG,57,19,52.550370225057584,5.307306599541967,57.894736842105274,3,0.15789473684210525,Ba_6_V4,F,57_R,GCCGATTCCAATTAAGGAT,19,47.000321335031224,0.24274229048437945,42.105263157894726,2,0.0,R,S5,A0615,Ba,,0
85693,57_F,CCTGTGTGCTTATTCTGAGTCG,57,22,53.33633041471786,7.034148675131958,50.0,2,0.0,Ba_5_V3,F,57_R,AGGATTCGGCGTTTTTTAT,19,47.204356781171036,0.9021750415851528,36.84210526315789,6,0.3157894736842105,R,S144,BA-BaBTSeqBa007P2--xx-xxx-xxxx-021-SF,Ba,,6
85403,57_F,ACCTTGTAGAAGGAATAAGATA,57,22,45.45092576116053,0.6146176354035333,31.818181818181817,2,0.0,Ba_1,F,57_R,AATAAAAACGCCGATTCCAA,20,48.44852323256078,3.612215106803774,35.0,5,0.25,R,S2,A0330,Ba,,0
85401,57_F,ACCTTGTAGAAGGAATAAGATA,57,22,45.45092576116053,0.6146176354035333,31.818181818181817,2,0.0,Ba_1,F,57_R,AATAAAAACGCCGATTCCAA,20,48.44852323256078,3.612215106803774,35.0,5,0.25,R,S4,A0605,Ba,,4
85402,57_F,ACCTTGTAGAAGGAATAAGATA,57,22,45.45092576116053,0.6146176354035333,31.818181818181817,2,0.0,Ba_1,F,57_R,AATAAAAACGCCGATTCCAA,20,48.44852323256078,3.612215106803774,35.0,5,0.25,R,S6,A0706,Ba,,0
53003,58_F,AGGCTGGTTATATTGGGAAAT,58,21,48.61706385664053,1.3740002311249169,38.095238095238095,3,0.2857142857142857,Ba_6_V4,F,58_R,TTTCACGCTCCCTCTTTGTA,20,50.964180209785816,3.721116584270199,45.0,3,0.45,R,S5,A0615,Ba,,0
53002,58_F,AGGCTGGTTATATTGGGAAAT,58,21,48.61706385664053,1.3740002311249169,38.095238095238095,3,0.2857142857142857,Ba_6_V4,F,58_R,TTTCACGCTCCCTCTTTGTA,20,50.964180209785816,3.721116584270199,45.0,3,0.45,R,S6,A0706,Ba,,0
53050,58_F,AGGCTGGTTATATTGGGAAAT,58,21,48.61706385664053,1.3740002311249169,38.095238095238095,3,0.2857142857142857,Ba_6_V4,F,58_R,TTTCACGCTCCCTCTTTGTA,20,50.964180209785816,3.721116584270199,45.0,3,0.45,R,S144,BA-BaBTSeqBa007P2--xx-xxx-xxxx-021-SF,Ba,,19
53001,58_F,AGGCTGGTTATATTGGGAAAT,58,21,48.61706385664053,1.3740002311249169,38.095238095238095,3,0.2857142857142857,Ba_6_V4,F,58_R,TTTCACGCTCCCTCTTTGTA,20,50.964180209785816,3.721116584270199,45.0,3,0.45,R,S2,A0330,Ba,,0
53000,58_F,AGGCTGGTTATATTGGGAAAT,58,21,48.61706385664053,1.3740002311249169,38.095238095238095,3,0.2857142857142857,Ba_6_V4,F,58_R,TTTCACGCTCCCTCTTTGTA,20,50.964180209785816,3.721116584270199,45.0,3,0.45,R,S4,A0605,Ba,,3
52979,58_F,GGAATAGTAAAGAAAAGGCTGG,58,22,48.99561679263815,2.693435053052255,40.90909090909091,4,0.3181818181818182,Ba_5_V3,F,58_R,CACGCTCCCTCTTTGTA,17,47.57898070299649,1.2767989634105987,52.941176470588246,3,0.35294117647058826,R,S144,BA-BaBTSeqBa007P2--xx-xxx-xxxx-021-SF,Ba,,19
53121,58_F,AGGCTGGTTATATTGGGAAAT,58,21,48.61706385664053,1.4019401958979143,38.095238095238095,3,0.2857142857142857,Ba_V45,F,58_R,TTTCACGCTCCCTCTTTGTA,20,50.964180209785816,3.7490565490431966,45.0,3,0.45,R,S144,BA-BaBTSeqBa007P2--xx-xxx-xxxx-021-SF,Ba,,19
52695,58_F,GAAGCATGTATTCATATTGAA,58,21,43.95311019369985,0.8831979320571577,28.57142857142857,2,0.0,Ba_1,F,58_R,CGCTCCCTCTTTGTATTT,18,46.24266701273677,1.4063588869797743,44.444444444444436,3,0.5,R,S144,BA-BaBTSeqBa007P2--xx-xxx-xxxx-021-SF,Ba,,19
53074,58_F,AGGCTGGTTATATTGGGAAAT,58,21,48.61706385664053,1.4019401958979143,38.095238095238095,3,0.2857142857142857,Ba_V45,F,58_R,TTTCACGCTCCCTCTTTGTA,20,50.964180209785816,3.7490565490431966,45.0,3,0.45,R,S5,A0615,Ba,,0
53073,58_F,AGGCTGGTTATATTGGGAAAT,58,21,48.61706385664053,1.4019401958979143,38.095238095238095,3,0.2857142857142857,Ba_V45,F,58_R,TTTCACGCTCCCTCTTTGTA,20,50.964180209785816,3.7490565490431966,45.0,3,0.45,R,S6,A0706,Ba,,0
53072,58_F,AGGCTGGTTATATTGGGAAAT,58,21,48.61706385664053,1.4019401958979143,38.095238095238095,3,0.2857142857142857,Ba_V45,F,58_R,TTTCACGCTCCCTCTTTGTA,20,50.964180209785816,3.7490565490431966,45.0,3,0.45,R,S2,A0330,Ba,,0
53071,58_F,AGGCTGGTTATATTGGGAAAT,58,21,48.61706385664053,1.4019401958979143,38.095238095238095,3,0.2857142857142857,Ba_V45,F,58_R,TTTCACGCTCCCTCTTTGTA,20,50.964180209785816,3.7490565490431966,45.0,3,0.45,R,S4,A0605,Ba,,3
52790,58_F,GAAGCATGTATTCATATTGAA,58,21,43.95311019369985,0.8831979320571577,28.57142857142857,2,0.0,Ba_3,F,58_R,CGCTCCCTCTTTGTATTT,18,46.24266701273677,1.4063588869797743,44.444444444444436,3,0.5,R,S5,A0615,Ba,,0
52789,58_F,GAAGCATGTATTCATATTGAA,58,21,43.95311019369985,0.8831979320571577,28.57142857142857,2,0.0,Ba_3,F,58_R,CGCTCCCTCTTTGTATTT,18,46.24266701273677,1.4063588869797743,44.444444444444436,3,0.5,R,S6,A0706,Ba,,0
52788,58_F,GAAGCATGTATTCATATTGAA,58,21,43.95311019369985,0.8831979320571577,28.57142857142857,2,0.0,Ba_3,F,58_R,CGCTCCCTCTTTGTATTT,18,46.24266701273677,1.4063588869797743,44.444444444444436,3,0.5,R,S2,A0330,Ba,,0
52787,58_F,GAAGCATGTATTCATATTGAA,58,21,43.95311019369985,0.8831979320571577,28.57142857142857,2,0.0,Ba_3,F,58_R,CGCTCCCTCTTTGTATTT,18,46.24266701273677,1.4063588869797743,44.444444444444436,3,0.5,R,S4,A0605,Ba,,3