,Primer_Name_L,Seq_L,Amplicon,Primer_Length_L,Tm_L,Delta Tm_L,GC_Content_L,Length_Longest_Homopolymer_L,Percent_Homopolymer_L,exp,flank_L,Primer_Name_R,Seq_R,Primer_Length_R,Tm_R,Delta Tm_R,GC_Content_R,Length_Longest_Homopolymer_R,Percent_Homopolymer_R,flank_R,sample_id,sample_name,species,strain,n_reads
30914,24_F,AGTGATAGTTCCTTCTTCTT,24,20,44.910173220611064,1.3920085189748337,35.0,2,0.0,Ba_4,F,24_R,GAGAGCGGAAGTGTTGTCG,19,53.00491451160599,6.7027327720200995,57.894736842105274,2,0.0,R,S4,A0605,Ba,,0
30915,24_F,AGTGATAGTTCCTTCTTCTT,24,20,44.910173220611064,1.3920085189748337,35.0,2,0.0,Ba_4,F,24_R,GAGAGCGGAAGTGTTGTCG,19,53.00491451160599,6.7027327720200995,57.894736842105274,2,0.0,R,S2,A0330,Ba,,0
30913,24_F,AGTGATAGTTCCTTCTTCTT,24,20,44.910173220611064,1.3920085189748337,35.0,2,0.0,Ba_4,F,24_R,GAGAGCGGAAGTGTTGTCG,19,53.00491451160599,6.7027327720200995,57.894736842105274,2,0.0,R,S5,A0615,Ba,,0
30797,24_F,GTGTCTAAATTGTGACAT,24,18,41.49625220226778,3.3400559234892166,33.33333333333333,3,0.16666666666666666,Ba_3,F,24_R,AGTGTTGTCGGGATTATA,18,43.894245600458184,0.9420625252988089,38.888888888888886,3,0.16666666666666666,R,S4,A0605,Ba,,0
30796,24_F,GTGTCTAAATTGTGACAT,24,18,41.49625220226778,3.3400559234892166,33.33333333333333,3,0.16666666666666666,Ba_3,F,24_R,AGTGTTGTCGGGATTATA,18,43.894245600458184,0.9420625252988089,38.888888888888886,3,0.16666666666666666,R,S5,A0615,Ba,,0
30798,24_F,GTGTCTAAATTGTGACAT,24,18,41.49625220226778,3.3400559234892166,33.33333333333333,3,0.16666666666666666,Ba_3,F,24_R,AGTGTTGTCGGGATTATA,18,43.894245600458184,0.9420625252988089,38.888888888888886,3,0.16666666666666666,R,S2,A0330,Ba,,0
30748,24_F,GTGTCTAAATTGTGACAT,24,18,41.49625220226778,3.3400559234892166,33.33333333333333,3,0.16666666666666666,Ba_2,F,24_R,AGTGTTGTCGGGATTATA,18,43.894245600458184,0.9420625252988089,38.888888888888886,3,0.16666666666666666,R,S144,BA-BaBTSeqBa007P2--xx-xxx-xxxx-021-SF,Ba,,54
30865,24_F,GTGTCTAAATTGTGACAT,24,18,41.49625220226778,3.3400559234892166,33.33333333333333,3,0.16666666666666666,Ba_3,F,24_R,AGTGTTGTCGGGATTATA,18,43.894245600458184,0.9420625252988089,38.888888888888886,3,0.16666666666666666,R,S144,BA-BaBTSeqBa007P2--xx-xxx-xxxx-021-SF,Ba,,54
31615,24_F,CGAACGTAAACCGCACTT,24,18,50.59761249102678,0.8272772616159045,50.0,3,0.16666666666666666,Yp_1,F,24_R,TTCTTATGCTGCACCAGATAGTTAA,25,52.36589188303526,0.9410021303925759,36.0,2,0.0,R,S5,A0615,Ba,,0
31616,24_F,CGAACGTAAACCGCACTT,24,18,50.59761249102678,0.8272772616159045,50.0,3,0.16666666666666666,Yp_1,F,24_R,TTCTTATGCTGCACCAGATAGTTAA,25,52.36589188303526,0.9410021303925759,36.0,2,0.0,R,S4,A0605,Ba,,0
31617,24_F,CGAACGTAAACCGCACTT,24,18,50.59761249102678,0.8272772616159045,50.0,3,0.16666666666666666,Yp_1,F,24_R,TTCTTATGCTGCACCAGATAGTTAA,25,52.36589188303526,0.9410021303925759,36.0,2,0.0,R,S2,A0330,Ba,,0
31684,24_F,CGAACGTAAACCGCACTT,24,18,50.59761249102678,0.8272772616159045,50.0,3,0.16666666666666666,Yp_1,F,24_R,TTCTTATGCTGCACCAGATAGTTAA,25,52.36589188303526,0.9410021303925759,36.0,2,0.0,R,S144,BA-BaBTSeqBa007P2--xx-xxx-xxxx-021-SF,Ba,,54
31567,24_F,CGAACGTAAACCGCACTT,24,18,50.59761249102678,0.5685991636573321,50.0,3,0.16666666666666666,Yp_1_V2,F,24_R,TTCTTATGCTGCACCAGATAGTTAA,25,52.36589188303526,1.1996802283511483,36.0,2,0.0,R,S144,BA-BaBTSeqBa007P2--xx-xxx-xxxx-021-SF,Ba,,54
31801,24_F,CATTTAACCTCAGTATTGC,24,19,43.412591949132995,8.584638271351388,36.84210526315789,3,0.15789473684210525,Yp_2,F,24_R,TTATGCTGCACCAGATAGTTAA,22,49.367929056287956,2.6293011641964408,36.36363636363637,2,0.0,R,S144,BA-BaBTSeqBa007P2--xx-xxx-xxxx-021-SF,Ba,,54
31732,24_F,CATTTAACCTCAGTATTGC,24,19,43.412591949132995,8.584638271351388,36.84210526315789,3,0.15789473684210525,Yp_2,F,24_R,TTATGCTGCACCAGATAGTTAA,22,49.367929056287956,2.6293011641964408,36.36363636363637,2,0.0,R,S5,A0615,Ba,,0
31733,24_F,CATTTAACCTCAGTATTGC,24,19,43.412591949132995,8.584638271351388,36.84210526315789,3,0.15789473684210525,Yp_2,F,24_R,TTATGCTGCACCAGATAGTTAA,22,49.367929056287956,2.6293011641964408,36.36363636363637,2,0.0,R,S4,A0605,Ba,,0
31734,24_F,CATTTAACCTCAGTATTGC,24,19,43.412591949132995,8.584638271351388,36.84210526315789,3,0.15789473684210525,Yp_2,F,24_R,TTATGCTGCACCAGATAGTTAA,22,49.367929056287956,2.6293011641964408,36.36363636363637,2,0.0,R,S2,A0330,Ba,,0
31333,24_F,TACGTTTCATTACCTCCTCTAG,24,22,48.68759559328078,1.4445319677651651,40.90909090909091,3,0.13636363636363635,Ba_6_V4,F,24_R,GGTAGAACAACAAAGTGG,18,44.916299389619105,2.3267642358965115,44.444444444444436,3,0.16666666666666666,R,S144,BA-BaBTSeqBa007P2--xx-xxx-xxxx-021-SF,Ba,,54
31216,24_F,AGTGATAGTTCCTTCTTCTT,24,20,44.910173220611064,1.3920085189748337,35.0,2,0.0,Ba_5_V3,F,24_R,GAGAGCGGAAGTGTTGTCG,19,53.00491451160599,6.7027327720200995,57.894736842105274,2,0.0,R,S144,BA-BaBTSeqBa007P2--xx-xxx-xxxx-021-SF,Ba,,54
31266,24_F,TACGTTTCATTACCTCCTCTAG,24,22,48.68759559328078,1.4445319677651651,40.90909090909091,3,0.13636363636363635,Ba_6_V4,F,24_R,GGTAGAACAACAAAGTGG,18,44.916299389619105,2.3267642358965115,44.444444444444436,3,0.16666666666666666,R,S2,A0330,Ba,,0
31264,24_F,TACGTTTCATTACCTCCTCTAG,24,22,48.68759559328078,1.4445319677651651,40.90909090909091,3,0.13636363636363635,Ba_6_V4,F,24_R,GGTAGAACAACAAAGTGG,18,44.916299389619105,2.3267642358965115,44.444444444444436,3,0.16666666666666666,R,S5,A0615,Ba,,0
31265,24_F,TACGTTTCATTACCTCCTCTAG,24,22,48.68759559328078,1.4445319677651651,40.90909090909091,3,0.13636363636363635,Ba_6_V4,F,24_R,GGTAGAACAACAAAGTGG,18,44.916299389619105,2.3267642358965115,44.444444444444436,3,0.16666666666666666,R,S4,A0605,Ba,,0
31450,24_F,TACGTTTCATTACCTCCTCTAG,24,22,48.68759559328078,1.4724719325381628,40.90909090909091,3,0.13636363636363635,Ba_V45,F,24_R,GGTAGAACAACAAAGTGG,18,44.916299389619105,2.2988242711235145,44.444444444444436,3,0.16666666666666666,R,S144,BA-BaBTSeqBa007P2--xx-xxx-xxxx-021-SF,Ba,,54
31498,24_F,CGAACGTAAACCGCACTT,24,18,50.59761249102678,0.5685991636573321,50.0,3,0.16666666666666666,Yp_1_V2,F,24_R,TTCTTATGCTGCACCAGATAGTTAA,25,52.36589188303526,1.1996802283511483,36.0,2,0.0,R,S5,A0615,Ba,,0
31500,24_F,CGAACGTAAACCGCACTT,24,18,50.59761249102678,0.5685991636573321,50.0,3,0.16666666666666666,Yp_1_V2,F,24_R,TTCTTATGCTGCACCAGATAGTTAA,25,52.36589188303526,1.1996802283511483,36.0,2,0.0,R,S2,A0330,Ba,,0
31499,24_F,CGAACGTAAACCGCACTT,24,18,50.59761249102678,0.5685991636573321,50.0,3,0.16666666666666666,Yp_1_V2,F,24_R,TTCTTATGCTGCACCAGATAGTTAA,25,52.36589188303526,1.1996802283511483,36.0,2,0.0,R,S4,A0605,Ba,,0
31381,24_F,TACGTTTCATTACCTCCTCTAG,24,22,48.68759559328078,1.4724719325381628,40.90909090909091,3,0.13636363636363635,Ba_V45,F,24_R,GGTAGAACAACAAAGTGG,18,44.916299389619105,2.2988242711235145,44.444444444444436,3,0.16666666666666666,R,S5,A0615,Ba,,0
31382,24_F,TACGTTTCATTACCTCCTCTAG,24,22,48.68759559328078,1.4724719325381628,40.90909090909091,3,0.13636363636363635,Ba_V45,F,24_R,GGTAGAACAACAAAGTGG,18,44.916299389619105,2.2988242711235145,44.444444444444436,3,0.16666666666666666,R,S4,A0605,Ba,,0
31383,24_F,TACGTTTCATTACCTCCTCTAG,24,22,48.68759559328078,1.4724719325381628,40.90909090909091,3,0.13636363636363635,Ba_V45,F,24_R,GGTAGAACAACAAAGTGG,18,44.916299389619105,2.2988242711235145,44.444444444444436,3,0.16666666666666666,R,S2,A0330,Ba,,0
84383,25_F,GGTGTTTATCTTTAGATTTCCA,25,22,46.01788736251058,0.28429437707531235,31.818181818181817,3,0.4090909090909091,Ba_4,F,25_R,AATCATTGTTGCGATGATT,19,45.35375336499675,0.9484283745891418,31.578947368421048,2,0.0,R,S144,BA-BaBTSeqBa007P2--xx-xxx-xxxx-021-SF,Ba,,249
84368,25_F,GGTGTTTATCTTTAGATTTCCA,25,22,46.01788736251058,0.28429437707531235,31.818181818181817,3,0.4090909090909091,Ba_4,F,25_R,AATCATTGTTGCGATGATT,19,45.35375336499675,0.9484283745891418,31.578947368421048,2,0.0,R,S2,A0330,Ba,,3
84367,25_F,GGTGTTTATCTTTAGATTTCCA,25,22,46.01788736251058,0.28429437707531235,31.818181818181817,3,0.4090909090909091,Ba_4,F,25_R,AATCATTGTTGCGATGATT,19,45.35375336499675,0.9484283745891418,31.578947368421048,2,0.0,R,S6,A0706,Ba,,35
84366,25_F,GGTGTTTATCTTTAGATTTCCA,25,22,46.01788736251058,0.28429437707531235,31.818181818181817,3,0.4090909090909091,Ba_4,F,25_R,AATCATTGTTGCGATGATT,19,45.35375336499675,0.9484283745891418,31.578947368421048,2,0.0,R,S5,A0615,Ba,,26
84365,25_F,GGTGTTTATCTTTAGATTTCCA,25,22,46.01788736251058,0.28429437707531235,31.818181818181817,3,0.4090909090909091,Ba_4,F,25_R,AATCATTGTTGCGATGATT,19,45.35375336499675,0.9484283745891418,31.578947368421048,2,0.0,R,S4,A0605,Ba,,6698
84436,25_F,GGTGTTTATCTTTAGATTTCCA,25,22,46.01788736251058,0.28429437707531235,31.818181818181817,3,0.4090909090909091,Ba_5_V3,F,25_R,AATCATTGTTGCGATGATT,19,45.35375336499675,0.9484283745891418,31.578947368421048,2,0.0,R,S4,A0605,Ba,,6698
84437,25_F,GGTGTTTATCTTTAGATTTCCA,25,22,46.01788736251058,0.28429437707531235,31.818181818181817,3,0.4090909090909091,Ba_5_V3,F,25_R,AATCATTGTTGCGATGATT,19,45.35375336499675,0.9484283745891418,31.578947368421048,2,0.0,R,S5,A0615,Ba,,26
84438,25_F,GGTGTTTATCTTTAGATTTCCA,25,22,46.01788736251058,0.28429437707531235,31.818181818181817,3,0.4090909090909091,Ba_5_V3,F,25_R,AATCATTGTTGCGATGATT,19,45.35375336499675,0.9484283745891418,31.578947368421048,2,0.0,R,S6,A0706,Ba,,35
84439,25_F,GGTGTTTATCTTTAGATTTCCA,25,22,46.01788736251058,0.28429437707531235,31.818181818181817,3,0.4090909090909091,Ba_5_V3,F,25_R,AATCATTGTTGCGATGATT,19,45.35375336499675,0.9484283745891418,31.578947368421048,2,0.0,R,S2,A0330,Ba,,3
84454,25_F,GGTGTTTATCTTTAGATTTCCA,25,22,46.01788736251058,0.28429437707531235,31.818181818181817,3,0.4090909090909091,Ba_5_V3,F,25_R,AATCATTGTTGCGATGATT,19,45.35375336499675,0.9484283745891418,31.578947368421048,2,0.0,R,S144,BA-BaBTSeqBa007P2--xx-xxx-xxxx-021-SF,Ba,,249
84226,25_F,GGTGTTTATCTTTAGATTTCCA,25,22,46.01788736251058,1.1815792367535778,31.818181818181817,3,0.4090909090909091,Ba_2,F,25_R,AATCATTGTTGCGATGATT,19,45.35375336499675,0.5174452392397484,31.578947368421048,2,0.0,R,S2,A0330,Ba,,3
84225,25_F,GGTGTTTATCTTTAGATTTCCA,25,22,46.01788736251058,1.1815792367535778,31.818181818181817,3,0.4090909090909091,Ba_2,F,25_R,AATCATTGTTGCGATGATT,19,45.35375336499675,0.5174452392397484,31.578947368421048,2,0.0,R,S6,A0706,Ba,,35
84224,25_F,GGTGTTTATCTTTAGATTTCCA,25,22,46.01788736251058,1.1815792367535778,31.818181818181817,3,0.4090909090909091,Ba_2,F,25_R,AATCATTGTTGCGATGATT,19,45.35375336499675,0.5174452392397484,31.578947368421048,2,0.0,R,S5,A0615,Ba,,26
84223,25_F,GGTGTTTATCTTTAGATTTCCA,25,22,46.01788736251058,1.1815792367535778,31.818181818181817,3,0.4090909090909091,Ba_2,F,25_R,AATCATTGTTGCGATGATT,19,45.35375336499675,0.5174452392397484,31.578947368421048,2,0.0,R,S4,A0605,Ba,,6698
84170,25_F,GGTGTTTATCTTTAGATTTCCA,25,22,46.01788736251058,1.1815792367535778,31.818181818181817,3,0.4090909090909091,Ba_1,F,25_R,AATCATTGTTGCGATGATT,19,45.35375336499675,0.5174452392397484,31.578947368421048,2,0.0,R,S144,BA-BaBTSeqBa007P2--xx-xxx-xxxx-021-SF,Ba,,249
84155,25_F,GGTGTTTATCTTTAGATTTCCA,25,22,46.01788736251058,1.1815792367535778,31.818181818181817,3,0.4090909090909091,Ba_1,F,25_R,AATCATTGTTGCGATGATT,19,45.35375336499675,0.5174452392397484,31.578947368421048,2,0.0,R,S2,A0330,Ba,,3
84154,25_F,GGTGTTTATCTTTAGATTTCCA,25,22,46.01788736251058,1.1815792367535778,31.818181818181817,3,0.4090909090909091,Ba_1,F,25_R,AATCATTGTTGCGATGATT,19,45.35375336499675,0.5174452392397484,31.578947368421048,2,0.0,R,S6,A0706,Ba,,35
84241,25_F,GGTGTTTATCTTTAGATTTCCA,25,22,46.01788736251058,1.1815792367535778,31.818181818181817,3,0.4090909090909091,Ba_2,F,25_R,AATCATTGTTGCGATGATT,19,45.35375336499675,0.5174452392397484,31.578947368421048,2,0.0,R,S144,BA-BaBTSeqBa007P2--xx-xxx-xxxx-021-SF,Ba,,249
84297,25_F,GGTGTTTATCTTTAGATTTCCA,25,22,46.01788736251058,1.1815792367535778,31.818181818181817,3,0.4090909090909091,Ba_3,F,25_R,AATCATTGTTGCGATGATT,19,45.35375336499675,0.5174452392397484,31.578947368421048,2,0.0,R,S2,A0330,Ba,,3
84296,25_F,GGTGTTTATCTTTAGATTTCCA,25,22,46.01788736251058,1.1815792367535778,31.818181818181817,3,0.4090909090909091,Ba_3,F,25_R,AATCATTGTTGCGATGATT,19,45.35375336499675,0.5174452392397484,31.578947368421048,2,0.0,R,S6,A0706,Ba,,35
84294,25_F,GGTGTTTATCTTTAGATTTCCA,25,22,46.01788736251058,1.1815792367535778,31.818181818181817,3,0.4090909090909091,Ba_3,F,25_R,AATCATTGTTGCGATGATT,19,45.35375336499675,0.5174452392397484,31.578947368421048,2,0.0,R,S4,A0605,Ba,,6698
84295,25_F,GGTGTTTATCTTTAGATTTCCA,25,22,46.01788736251058,1.1815792367535778,31.818181818181817,3,0.4090909090909091,Ba_3,F,25_R,AATCATTGTTGCGATGATT,19,45.35375336499675,0.5174452392397484,31.578947368421048,2,0.0,R,S5,A0615,Ba,,26
84312,25_F,GGTGTTTATCTTTAGATTTCCA,25,22,46.01788736251058,1.1815792367535778,31.818181818181817,3,0.4090909090909091,Ba_3,F,25_R,AATCATTGTTGCGATGATT,19,45.35375336499675,0.5174452392397484,31.578947368421048,2,0.0,R,S144,BA-BaBTSeqBa007P2--xx-xxx-xxxx-021-SF,Ba,,249
84507,25_F,TTCGCTTAAACTTCCAATCAT,25,21,48.01326246213239,0.7701988366167782,33.33333333333333,3,0.14285714285714285,Ba_6_V4,F,25_R,GAATAATGATTGCTGGAGTTCTA,23,48.4107575274179,1.1676939019022896,34.78260869565217,2,0.0,R,S4,A0605,Ba,,6698
84738,25_F,TAGGTGCCGCCGTTGCGT,25,18,59.27086239861318,7.845972645970505,66.66666666666666,2,0.0,Yp_1,F,25_R,GCACACTTGTGGTCATCCGAT,21,55.132212212585785,3.7073224599431,52.38095238095239,2,0.0,R,S144,BA-BaBTSeqBa007P2--xx-xxx-xxxx-021-SF,Ba,,249
84723,25_F,TAGGTGCCGCCGTTGCGT,25,18,59.27086239861318,7.845972645970505,66.66666666666666,2,0.0,Yp_1,F,25_R,GCACACTTGTGGTCATCCGAT,21,55.132212212585785,3.7073224599431,52.38095238095239,2,0.0,R,S2,A0330,Ba,,3
84722,25_F,TAGGTGCCGCCGTTGCGT,25,18,59.27086239861318,7.845972645970505,66.66666666666666,2,0.0,Yp_1,F,25_R,GCACACTTGTGGTCATCCGAT,21,55.132212212585785,3.7073224599431,52.38095238095239,2,0.0,R,S6,A0706,Ba,,35
84721,25_F,TAGGTGCCGCCGTTGCGT,25,18,59.27086239861318,7.845972645970505,66.66666666666666,2,0.0,Yp_1,F,25_R,GCACACTTGTGGTCATCCGAT,21,55.132212212585785,3.7073224599431,52.38095238095239,2,0.0,R,S5,A0615,Ba,,26
84720,25_F,TAGGTGCCGCCGTTGCGT,25,18,59.27086239861318,7.845972645970505,66.66666666666666,2,0.0,Yp_1,F,25_R,GCACACTTGTGGTCATCCGAT,21,55.132212212585785,3.7073224599431,52.38095238095239,2,0.0,R,S4,A0605,Ba,,6698
84791,25_F,GGTGGTTAGGGCTATCAGG,25,19,50.766779654923255,1.2304505655611349,57.894736842105274,3,0.15789473684210525,Yp_2,F,25_R,TAAAGGCTATGACCACGC,18,48.74253701916399,3.2546932013203995,50.0,3,0.16666666666666666,R,S4,A0605,Ba,,6698
84792,25_F,GGTGGTTAGGGCTATCAGG,25,19,50.766779654923255,1.2304505655611349,57.894736842105274,3,0.15789473684210525,Yp_2,F,25_R,TAAAGGCTATGACCACGC,18,48.74253701916399,3.2546932013203995,50.0,3,0.16666666666666666,R,S5,A0615,Ba,,26
84793,25_F,GGTGGTTAGGGCTATCAGG,25,19,50.766779654923255,1.2304505655611349,57.894736842105274,3,0.15789473684210525,Yp_2,F,25_R,TAAAGGCTATGACCACGC,18,48.74253701916399,3.2546932013203995,50.0,3,0.16666666666666666,R,S6,A0706,Ba,,35
84794,25_F,GGTGGTTAGGGCTATCAGG,25,19,50.766779654923255,1.2304505655611349,57.894736842105274,3,0.15789473684210525,Yp_2,F,25_R,TAAAGGCTATGACCACGC,18,48.74253701916399,3.2546932013203995,50.0,3,0.16666666666666666,R,S2,A0330,Ba,,3
84809,25_F,GGTGGTTAGGGCTATCAGG,25,19,50.766779654923255,1.2304505655611349,57.894736842105274,3,0.15789473684210525,Yp_2,F,25_R,TAAAGGCTATGACCACGC,18,48.74253701916399,3.2546932013203995,50.0,3,0.16666666666666666,R,S144,BA-BaBTSeqBa007P2--xx-xxx-xxxx-021-SF,Ba,,249
84581,25_F,TTCGCTTAAACTTCCAATCAT,25,21,48.01326246213239,0.7981388013897757,33.33333333333333,3,0.14285714285714285,Ba_V45,F,25_R,GAATAATGATTGCTGGAGTTCTA,23,48.4107575274179,1.195633866675287,34.78260869565217,2,0.0,R,S2,A0330,Ba,,3
84580,25_F,TTCGCTTAAACTTCCAATCAT,25,21,48.01326246213239,0.7981388013897757,33.33333333333333,3,0.14285714285714285,Ba_V45,F,25_R,GAATAATGATTGCTGGAGTTCTA,23,48.4107575274179,1.195633866675287,34.78260869565217,2,0.0,R,S6,A0706,Ba,,35
84579,25_F,TTCGCTTAAACTTCCAATCAT,25,21,48.01326246213239,0.7981388013897757,33.33333333333333,3,0.14285714285714285,Ba_V45,F,25_R,GAATAATGATTGCTGGAGTTCTA,23,48.4107575274179,1.195633866675287,34.78260869565217,2,0.0,R,S5,A0615,Ba,,26
84578,25_F,TTCGCTTAAACTTCCAATCAT,25,21,48.01326246213239,0.7981388013897757,33.33333333333333,3,0.14285714285714285,Ba_V45,F,25_R,GAATAATGATTGCTGGAGTTCTA,23,48.4107575274179,1.195633866675287,34.78260869565217,2,0.0,R,S4,A0605,Ba,,6698
84525,25_F,TTCGCTTAAACTTCCAATCAT,25,21,48.01326246213239,0.7701988366167782,33.33333333333333,3,0.14285714285714285,Ba_6_V4,F,25_R,GAATAATGATTGCTGGAGTTCTA,23,48.4107575274179,1.1676939019022896,34.78260869565217,2,0.0,R,S144,BA-BaBTSeqBa007P2--xx-xxx-xxxx-021-SF,Ba,,249
84510,25_F,TTCGCTTAAACTTCCAATCAT,25,21,48.01326246213239,0.7701988366167782,33.33333333333333,3,0.14285714285714285,Ba_6_V4,F,25_R,GAATAATGATTGCTGGAGTTCTA,23,48.4107575274179,1.1676939019022896,34.78260869565217,2,0.0,R,S2,A0330,Ba,,3
84509,25_F,TTCGCTTAAACTTCCAATCAT,25,21,48.01326246213239,0.7701988366167782,33.33333333333333,3,0.14285714285714285,Ba_6_V4,F,25_R,GAATAATGATTGCTGGAGTTCTA,23,48.4107575274179,1.1676939019022896,34.78260869565217,2,0.0,R,S6,A0706,Ba,,35
84508,25_F,TTCGCTTAAACTTCCAATCAT,25,21,48.01326246213239,0.7701988366167782,33.33333333333333,3,0.14285714285714285,Ba_6_V4,F,25_R,GAATAATGATTGCTGGAGTTCTA,23,48.4107575274179,1.1676939019022896,34.78260869565217,2,0.0,R,S5,A0615,Ba,,26
84153,25_F,GGTGTTTATCTTTAGATTTCCA,25,22,46.01788736251058,1.1815792367535778,31.818181818181817,3,0.4090909090909091,Ba_1,F,25_R,AATCATTGTTGCGATGATT,19,45.35375336499675,0.5174452392397484,31.578947368421048,2,0.0,R,S5,A0615,Ba,,26
84596,25_F,TTCGCTTAAACTTCCAATCAT,25,21,48.01326246213239,0.7981388013897757,33.33333333333333,3,0.14285714285714285,Ba_V45,F,25_R,GAATAATGATTGCTGGAGTTCTA,23,48.4107575274179,1.195633866675287,34.78260869565217,2,0.0,R,S144,BA-BaBTSeqBa007P2--xx-xxx-xxxx-021-SF,Ba,,249
84652,25_F,TAGGTGCCGCCGTTGCGT,25,18,59.27086239861318,8.104650743929078,66.66666666666666,2,0.0,Yp_1_V2,F,25_R,GCACACTTGTGGTCATCCGAT,21,55.132212212585785,3.9660005579016726,52.38095238095239,2,0.0,R,S2,A0330,Ba,,3
84651,25_F,TAGGTGCCGCCGTTGCGT,25,18,59.27086239861318,8.104650743929078,66.66666666666666,2,0.0,Yp_1_V2,F,25_R,GCACACTTGTGGTCATCCGAT,21,55.132212212585785,3.9660005579016726,52.38095238095239,2,0.0,R,S6,A0706,Ba,,35
84649,25_F,TAGGTGCCGCCGTTGCGT,25,18,59.27086239861318,8.104650743929078,66.66666666666666,2,0.0,Yp_1_V2,F,25_R,GCACACTTGTGGTCATCCGAT,21,55.132212212585785,3.9660005579016726,52.38095238095239,2,0.0,R,S4,A0605,Ba,,6698
84650,25_F,TAGGTGCCGCCGTTGCGT,25,18,59.27086239861318,8.104650743929078,66.66666666666666,2,0.0,Yp_1_V2,F,25_R,GCACACTTGTGGTCATCCGAT,21,55.132212212585785,3.9660005579016726,52.38095238095239,2,0.0,R,S5,A0615,Ba,,26
84667,25_F,TAGGTGCCGCCGTTGCGT,25,18,59.27086239861318,8.104650743929078,66.66666666666666,2,0.0,Yp_1_V2,F,25_R,GCACACTTGTGGTCATCCGAT,21,55.132212212585785,3.9660005579016726,52.38095238095239,2,0.0,R,S144,BA-BaBTSeqBa007P2--xx-xxx-xxxx-021-SF,Ba,,249
84152,25_F,GGTGTTTATCTTTAGATTTCCA,25,22,46.01788736251058,1.1815792367535778,31.818181818181817,3,0.4090909090909091,Ba_1,F,25_R,AATCATTGTTGCGATGATT,19,45.35375336499675,0.5174452392397484,31.578947368421048,2,0.0,R,S4,A0605,Ba,,6698
86322,26_F,TTGCGGTGATACTATATTCC,26,20,46.558888612643564,0.2567068730576665,40.0,2,0.0,Ba_4,F,26_R,ACCACAAGTGAAGAAAGAA,19,46.054882652139604,0.2472990874462795,36.84210526315789,3,0.15789473684210525,R,S144,BA-BaBTSeqBa007P2--xx-xxx-xxxx-021-SF,Ba,,2469
86186,26_F,TTGCGGTGATACTATATTCC,26,20,46.558888612643564,1.7225804868865566,40.0,2,0.0,Ba_3,F,26_R,ACCACAAGTGAAGAAAGAA,19,46.054882652139604,1.2185745263826109,36.84210526315789,3,0.15789473684210525,R,S144,BA-BaBTSeqBa007P2--xx-xxx-xxxx-021-SF,Ba,,2469
86243,26_F,TTGCGGTGATACTATATTCC,26,20,46.558888612643564,0.2567068730576665,40.0,2,0.0,Ba_4,F,26_R,ACCACAAGTGAAGAAAGAA,19,46.054882652139604,0.2472990874462795,36.84210526315789,3,0.15789473684210525,R,S2,A0330,Ba,,53
86244,26_F,TTGCGGTGATACTATATTCC,26,20,46.558888612643564,0.2567068730576665,40.0,2,0.0,Ba_4,F,26_R,ACCACAAGTGAAGAAAGAA,19,46.054882652139604,0.2472990874462795,36.84210526315789,3,0.15789473684210525,R,S5,A0615,Ba,,110