,Primer_Name_L,Seq_L,Amplicon,Primer_Length_L,Tm_L,Delta Tm_L,GC_Content_L,Length_Longest_Homopolymer_L,Percent_Homopolymer_L,exp,flank_L,Primer_Name_R,Seq_R,Primer_Length_R,Tm_R,Delta Tm_R,GC_Content_R,Length_Longest_Homopolymer_R,Percent_Homopolymer_R,flank_R,sample_id,sample_name,species,strain,n_reads
73111,19_F,GATAGGTTCTAATCCATTCACC,19,22,47.9681031353337,3.1981085193504057,40.90909090909091,2,0.0,Yp_1_V2,F,19_R,CTGGCTGACTGTACTACTGAAGT,23,53.58825984585576,2.422048191171648,47.82608695652174,2,0.0,R,S2,A0330,Ba,,0
73110,19_F,GATAGGTTCTAATCCATTCACC,19,22,47.9681031353337,3.1981085193504057,40.90909090909091,2,0.0,Yp_1_V2,F,19_R,CTGGCTGACTGTACTACTGAAGT,23,53.58825984585576,2.422048191171648,47.82608695652174,2,0.0,R,S6,A0706,Ba,,25
73109,19_F,GATAGGTTCTAATCCATTCACC,19,22,47.9681031353337,3.1981085193504057,40.90909090909091,2,0.0,Yp_1_V2,F,19_R,CTGGCTGACTGTACTACTGAAGT,23,53.58825984585576,2.422048191171648,47.82608695652174,2,0.0,R,S4,A0605,Ba,,5208
72909,19_F,GGTGCTTATACTGGTGAGATAT,19,22,48.98379840475667,1.28897743465334,40.90909090909091,2,0.0,Ft_2,F,19_R,TGATTCACCAATACACACTACT,22,48.950904359204635,1.3218714802053808,36.36363636363637,2,0.0,R,S5,A0615,Ba,,7
72908,19_F,GGTGCTTATACTGGTGAGATAT,19,22,48.98379840475667,1.28897743465334,40.90909090909091,2,0.0,Ft_2,F,19_R,TGATTCACCAATACACACTACT,22,48.950904359204635,1.3218714802053808,36.36363636363637,2,0.0,R,S2,A0330,Ba,,0
72907,19_F,GGTGCTTATACTGGTGAGATAT,19,22,48.98379840475667,1.28897743465334,40.90909090909091,2,0.0,Ft_2,F,19_R,TGATTCACCAATACACACTACT,22,48.950904359204635,1.3218714802053808,36.36363636363637,2,0.0,R,S6,A0706,Ba,,25
72906,19_F,GGTGCTTATACTGGTGAGATAT,19,22,48.98379840475667,1.28897743465334,40.90909090909091,2,0.0,Ft_2,F,19_R,TGATTCACCAATACACACTACT,22,48.950904359204635,1.3218714802053808,36.36363636363637,2,0.0,R,S4,A0605,Ba,,5208
72979,19_F,GGTGCTTATACTGGTGAGATAT,19,22,48.98379840475667,1.28897743465334,40.90909090909091,2,0.0,Ft_2,F,19_R,TGATTCACCAATACACACTACT,22,48.950904359204635,1.3218714802053808,36.36363636363637,2,0.0,R,S144,BA-BaBTSeqBa007P2--xx-xxx-xxxx-021-SF,Ba,,245
28131,20_F,ATTGATGCACTTCTCTAACA,20,20,46.41016435309746,4.756047301586656,35.0,2,0.0,Yp_1_V2,F,20_R,CATTACTATGGCGGCTGAAGC,21,53.74198107528672,2.5757694206026187,52.38095238095239,2,0.0,R,S5,A0615,Ba,,0
28130,20_F,ATTGATGCACTTCTCTAACA,20,20,46.41016435309746,4.756047301586656,35.0,2,0.0,Yp_1_V2,F,20_R,CATTACTATGGCGGCTGAAGC,21,53.74198107528672,2.5757694206026187,52.38095238095239,2,0.0,R,S6,A0706,Ba,,0
28132,20_F,ATTGATGCACTTCTCTAACA,20,20,46.41016435309746,4.756047301586656,35.0,2,0.0,Yp_1_V2,F,20_R,CATTACTATGGCGGCTGAAGC,21,53.74198107528672,2.5757694206026187,52.38095238095239,2,0.0,R,S4,A0605,Ba,,55
28133,20_F,ATTGATGCACTTCTCTAACA,20,20,46.41016435309746,4.756047301586656,35.0,2,0.0,Yp_1_V2,F,20_R,CATTACTATGGCGGCTGAAGC,21,53.74198107528672,2.5757694206026187,52.38095238095239,2,0.0,R,S2,A0330,Ba,,0
28337,20_F,ATTGATGCACTTCTCTAACA,20,20,46.41016435309746,5.0147253995452274,35.0,2,0.0,Yp_1,F,20_R,CATTACTATGGCGGCTGAAGC,21,53.74198107528672,2.317091322644046,52.38095238095239,2,0.0,R,S2,A0330,Ba,,0
28334,20_F,ATTGATGCACTTCTCTAACA,20,20,46.41016435309746,5.0147253995452274,35.0,2,0.0,Yp_1,F,20_R,CATTACTATGGCGGCTGAAGC,21,53.74198107528672,2.317091322644046,52.38095238095239,2,0.0,R,S6,A0706,Ba,,0
28335,20_F,ATTGATGCACTTCTCTAACA,20,20,46.41016435309746,5.0147253995452274,35.0,2,0.0,Yp_1,F,20_R,CATTACTATGGCGGCTGAAGC,21,53.74198107528672,2.317091322644046,52.38095238095239,2,0.0,R,S5,A0615,Ba,,0
28336,20_F,ATTGATGCACTTCTCTAACA,20,20,46.41016435309746,5.0147253995452274,35.0,2,0.0,Yp_1,F,20_R,CATTACTATGGCGGCTGAAGC,21,53.74198107528672,2.317091322644046,52.38095238095239,2,0.0,R,S4,A0605,Ba,,55
28205,20_F,ATTGATGCACTTCTCTAACA,20,20,46.41016435309746,4.756047301586656,35.0,2,0.0,Yp_1_V2,F,20_R,CATTACTATGGCGGCTGAAGC,21,53.74198107528672,2.5757694206026187,52.38095238095239,2,0.0,R,S144,BA-BaBTSeqBa007P2--xx-xxx-xxxx-021-SF,Ba,,382
27797,20_F,CTGTATGTGGCGCTATTACG,20,20,50.92854632841898,0.8713584846050821,50.0,2,0.0,Ft_2_V2,F,20_R,ATCTATACGAGGAGGCGTACCA,22,54.01403975826411,3.9568519144502257,50.0,2,0.0,R,S144,BA-BaBTSeqBa007P2--xx-xxx-xxxx-021-SF,Ba,,382
27725,20_F,CTGTATGTGGCGCTATTACG,20,20,50.92854632841898,0.8713584846050821,50.0,2,0.0,Ft_2_V2,F,20_R,ATCTATACGAGGAGGCGTACCA,22,54.01403975826411,3.9568519144502257,50.0,2,0.0,R,S2,A0330,Ba,,0
27724,20_F,CTGTATGTGGCGCTATTACG,20,20,50.92854632841898,0.8713584846050821,50.0,2,0.0,Ft_2_V2,F,20_R,ATCTATACGAGGAGGCGTACCA,22,54.01403975826411,3.9568519144502257,50.0,2,0.0,R,S4,A0605,Ba,,55
27723,20_F,CTGTATGTGGCGCTATTACG,20,20,50.92854632841898,0.8713584846050821,50.0,2,0.0,Ft_2_V2,F,20_R,ATCTATACGAGGAGGCGTACCA,22,54.01403975826411,3.9568519144502257,50.0,2,0.0,R,S5,A0615,Ba,,0
27722,20_F,CTGTATGTGGCGCTATTACG,20,20,50.92854632841898,0.8713584846050821,50.0,2,0.0,Ft_2_V2,F,20_R,ATCTATACGAGGAGGCGTACCA,22,54.01403975826411,3.9568519144502257,50.0,2,0.0,R,S6,A0706,Ba,,0
27926,20_F,CTGTATGTGGCGCTATTACG,20,20,50.92854632841898,0.6557704890089653,50.0,2,0.0,Ft_2,F,20_R,ATCTATACGAGGAGGCGTACCA,22,54.01403975826411,3.741263918854109,50.0,2,0.0,R,S6,A0706,Ba,,0
27927,20_F,CTGTATGTGGCGCTATTACG,20,20,50.92854632841898,0.6557704890089653,50.0,2,0.0,Ft_2,F,20_R,ATCTATACGAGGAGGCGTACCA,22,54.01403975826411,3.741263918854109,50.0,2,0.0,R,S5,A0615,Ba,,0
27928,20_F,CTGTATGTGGCGCTATTACG,20,20,50.92854632841898,0.6557704890089653,50.0,2,0.0,Ft_2,F,20_R,ATCTATACGAGGAGGCGTACCA,22,54.01403975826411,3.741263918854109,50.0,2,0.0,R,S4,A0605,Ba,,55
27929,20_F,CTGTATGTGGCGCTATTACG,20,20,50.92854632841898,0.6557704890089653,50.0,2,0.0,Ft_2,F,20_R,ATCTATACGAGGAGGCGTACCA,22,54.01403975826411,3.741263918854109,50.0,2,0.0,R,S2,A0330,Ba,,0
28001,20_F,CTGTATGTGGCGCTATTACG,20,20,50.92854632841898,0.6557704890089653,50.0,2,0.0,Ft_2,F,20_R,ATCTATACGAGGAGGCGTACCA,22,54.01403975826411,3.741263918854109,50.0,2,0.0,R,S144,BA-BaBTSeqBa007P2--xx-xxx-xxxx-021-SF,Ba,,382
27593,20_F,GAACTATGATCCTGCTAAT,20,19,43.08772510563767,5.768566494586345,36.84210526315789,2,0.0,Ft_1,F,20_R,TACTACCATCATCCGCCTTAAC,22,51.54444752933721,2.6881559291132007,45.45454545454545,2,0.0,R,S144,BA-BaBTSeqBa007P2--xx-xxx-xxxx-021-SF,Ba,,382
27521,20_F,GAACTATGATCCTGCTAAT,20,19,43.08772510563767,5.768566494586345,36.84210526315789,2,0.0,Ft_1,F,20_R,TACTACCATCATCCGCCTTAAC,22,51.54444752933721,2.6881559291132007,45.45454545454545,2,0.0,R,S2,A0330,Ba,,0
27519,20_F,GAACTATGATCCTGCTAAT,20,19,43.08772510563767,5.768566494586345,36.84210526315789,2,0.0,Ft_1,F,20_R,TACTACCATCATCCGCCTTAAC,22,51.54444752933721,2.6881559291132007,45.45454545454545,2,0.0,R,S5,A0615,Ba,,0
27518,20_F,GAACTATGATCCTGCTAAT,20,19,43.08772510563767,5.768566494586345,36.84210526315789,2,0.0,Ft_1,F,20_R,TACTACCATCATCCGCCTTAAC,22,51.54444752933721,2.6881559291132007,45.45454545454545,2,0.0,R,S6,A0706,Ba,,0
27520,20_F,GAACTATGATCCTGCTAAT,20,19,43.08772510563767,5.768566494586345,36.84210526315789,2,0.0,Ft_1,F,20_R,TACTACCATCATCCGCCTTAAC,22,51.54444752933721,2.6881559291132007,45.45454545454545,2,0.0,R,S4,A0605,Ba,,55
27389,20_F,GTATGTGACGGGAGCCAA,20,18,50.94793338111992,3.732809720377311,55.555555555555564,3,0.16666666666666666,Ba_V45,F,20_R,TCCGTTGAATAAGCAGTAT,19,45.529719935565204,1.685403725177416,36.84210526315789,2,0.0,R,S144,BA-BaBTSeqBa007P2--xx-xxx-xxxx-021-SF,Ba,,382
28409,20_F,ATTGATGCACTTCTCTAACA,20,20,46.41016435309746,5.0147253995452274,35.0,2,0.0,Yp_1,F,20_R,CATTACTATGGCGGCTGAAGC,21,53.74198107528672,2.317091322644046,52.38095238095239,2,0.0,R,S144,BA-BaBTSeqBa007P2--xx-xxx-xxxx-021-SF,Ba,,382
28538,20_F,CAGGTTGTAACACGCATTA,20,19,47.71457181057451,4.282658409909878,42.105263157894726,2,0.0,Yp_2,F,20_R,ACGATACTTGCATTACTATGGCGG,24,55.223429843909855,3.2261996234254653,45.83333333333333,2,0.0,R,S6,A0706,Ba,,0
28539,20_F,CAGGTTGTAACACGCATTA,20,19,47.71457181057451,4.282658409909878,42.105263157894726,2,0.0,Yp_2,F,20_R,ACGATACTTGCATTACTATGGCGG,24,55.223429843909855,3.2261996234254653,45.83333333333333,2,0.0,R,S5,A0615,Ba,,0
28540,20_F,CAGGTTGTAACACGCATTA,20,19,47.71457181057451,4.282658409909878,42.105263157894726,2,0.0,Yp_2,F,20_R,ACGATACTTGCATTACTATGGCGG,24,55.223429843909855,3.2261996234254653,45.83333333333333,2,0.0,R,S4,A0605,Ba,,55
28541,20_F,CAGGTTGTAACACGCATTA,20,19,47.71457181057451,4.282658409909878,42.105263157894726,2,0.0,Yp_2,F,20_R,ACGATACTTGCATTACTATGGCGG,24,55.223429843909855,3.2261996234254653,45.83333333333333,2,0.0,R,S2,A0330,Ba,,0
28613,20_F,CAGGTTGTAACACGCATTA,20,19,47.71457181057451,4.282658409909878,42.105263157894726,2,0.0,Yp_2,F,20_R,ACGATACTTGCATTACTATGGCGG,24,55.223429843909855,3.2261996234254653,45.83333333333333,2,0.0,R,S144,BA-BaBTSeqBa007P2--xx-xxx-xxxx-021-SF,Ba,,382
25349,20_F,TTTCGCTAGCTTGATAAG,20,18,43.84436073939804,0.9919473863589588,38.888888888888886,3,0.16666666666666666,Ba_2,F,20_R,TGTGGAAGGTAAGAAATAT,19,42.155441492823,2.6808666329339985,31.578947368421048,3,0.15789473684210525,R,S144,BA-BaBTSeqBa007P2--xx-xxx-xxxx-021-SF,Ba,,382
25553,20_F,TTTCGCTAGCTTGATAAG,20,18,43.84436073939804,0.9919473863589588,38.888888888888886,3,0.16666666666666666,Ba_3,F,20_R,TGTGGAAGGTAAGAAATAT,19,42.155441492823,2.6808666329339985,31.578947368421048,3,0.15789473684210525,R,S144,BA-BaBTSeqBa007P2--xx-xxx-xxxx-021-SF,Ba,,382
25479,20_F,TTTCGCTAGCTTGATAAG,20,18,43.84436073939804,0.9919473863589588,38.888888888888886,3,0.16666666666666666,Ba_3,F,20_R,TGTGGAAGGTAAGAAATAT,19,42.155441492823,2.6808666329339985,31.578947368421048,3,0.15789473684210525,R,S5,A0615,Ba,,0
25478,20_F,TTTCGCTAGCTTGATAAG,20,18,43.84436073939804,0.9919473863589588,38.888888888888886,3,0.16666666666666666,Ba_3,F,20_R,TGTGGAAGGTAAGAAATAT,19,42.155441492823,2.6808666329339985,31.578947368421048,3,0.15789473684210525,R,S6,A0706,Ba,,0
25480,20_F,TTTCGCTAGCTTGATAAG,20,18,43.84436073939804,0.9919473863589588,38.888888888888886,3,0.16666666666666666,Ba_3,F,20_R,TGTGGAAGGTAAGAAATAT,19,42.155441492823,2.6808666329339985,31.578947368421048,3,0.15789473684210525,R,S4,A0605,Ba,,55
25481,20_F,TTTCGCTAGCTTGATAAG,20,18,43.84436073939804,0.9919473863589588,38.888888888888886,3,0.16666666666666666,Ba_3,F,20_R,TGTGGAAGGTAAGAAATAT,19,42.155441492823,2.6808666329339985,31.578947368421048,3,0.15789473684210525,R,S2,A0330,Ba,,0
25145,20_F,TTTCGCTAGCTTGATAAG,20,18,43.84436073939804,0.9919473863589588,38.888888888888886,3,0.16666666666666666,Ba_1,F,20_R,TGTGGAAGGTAAGAAATAT,19,42.155441492823,2.6808666329339985,31.578947368421048,3,0.15789473684210525,R,S144,BA-BaBTSeqBa007P2--xx-xxx-xxxx-021-SF,Ba,,382
26165,20_F,GTATGTGACGGGAGCCAA,20,18,50.94793338111992,4.645751641534034,55.555555555555564,3,0.16666666666666666,Ba_5_V3,F,20_R,TCCGTTGAATAAGCAGTAT,19,45.529719935565204,0.7724618040206934,36.84210526315789,2,0.0,R,S144,BA-BaBTSeqBa007P2--xx-xxx-xxxx-021-SF,Ba,,382
25073,20_F,TTTCGCTAGCTTGATAAG,20,18,43.84436073939804,0.9919473863589588,38.888888888888886,3,0.16666666666666666,Ba_1,F,20_R,TGTGGAAGGTAAGAAATAT,19,42.155441492823,2.6808666329339985,31.578947368421048,3,0.15789473684210525,R,S2,A0330,Ba,,0
25070,20_F,TTTCGCTAGCTTGATAAG,20,18,43.84436073939804,0.9919473863589588,38.888888888888886,3,0.16666666666666666,Ba_1,F,20_R,TGTGGAAGGTAAGAAATAT,19,42.155441492823,2.6808666329339985,31.578947368421048,3,0.15789473684210525,R,S6,A0706,Ba,,0
25071,20_F,TTTCGCTAGCTTGATAAG,20,18,43.84436073939804,0.9919473863589588,38.888888888888886,3,0.16666666666666666,Ba_1,F,20_R,TGTGGAAGGTAAGAAATAT,19,42.155441492823,2.6808666329339985,31.578947368421048,3,0.15789473684210525,R,S5,A0615,Ba,,0
25072,20_F,TTTCGCTAGCTTGATAAG,20,18,43.84436073939804,0.9919473863589588,38.888888888888886,3,0.16666666666666666,Ba_1,F,20_R,TGTGGAAGGTAAGAAATAT,19,42.155441492823,2.6808666329339985,31.578947368421048,3,0.15789473684210525,R,S4,A0605,Ba,,55
25274,20_F,TTTCGCTAGCTTGATAAG,20,18,43.84436073939804,0.9919473863589588,38.888888888888886,3,0.16666666666666666,Ba_2,F,20_R,TGTGGAAGGTAAGAAATAT,19,42.155441492823,2.6808666329339985,31.578947368421048,3,0.15789473684210525,R,S6,A0706,Ba,,0
25275,20_F,TTTCGCTAGCTTGATAAG,20,18,43.84436073939804,0.9919473863589588,38.888888888888886,3,0.16666666666666666,Ba_2,F,20_R,TGTGGAAGGTAAGAAATAT,19,42.155441492823,2.6808666329339985,31.578947368421048,3,0.15789473684210525,R,S5,A0615,Ba,,0
25276,20_F,TTTCGCTAGCTTGATAAG,20,18,43.84436073939804,0.9919473863589588,38.888888888888886,3,0.16666666666666666,Ba_2,F,20_R,TGTGGAAGGTAAGAAATAT,19,42.155441492823,2.6808666329339985,31.578947368421048,3,0.15789473684210525,R,S4,A0605,Ba,,55
25277,20_F,TTTCGCTAGCTTGATAAG,20,18,43.84436073939804,0.9919473863589588,38.888888888888886,3,0.16666666666666666,Ba_2,F,20_R,TGTGGAAGGTAAGAAATAT,19,42.155441492823,2.6808666329339985,31.578947368421048,3,0.15789473684210525,R,S2,A0330,Ba,,0
25961,20_F,GTATGTGACGGGAGCCAA,20,18,50.94793338111992,4.475415934006712,55.555555555555564,3,0.16666666666666666,Ba_5_V35,F,20_R,TCCGTTGAATAAGCAGTAT,19,45.529719935565204,0.9427975115480152,36.84210526315789,2,0.0,R,S144,BA-BaBTSeqBa007P2--xx-xxx-xxxx-021-SF,Ba,,382
25889,20_F,GTATGTGACGGGAGCCAA,20,18,50.94793338111992,4.475415934006712,55.555555555555564,3,0.16666666666666666,Ba_5_V35,F,20_R,TCCGTTGAATAAGCAGTAT,19,45.529719935565204,0.9427975115480152,36.84210526315789,2,0.0,R,S2,A0330,Ba,,0
25886,20_F,GTATGTGACGGGAGCCAA,20,18,50.94793338111992,4.475415934006712,55.555555555555564,3,0.16666666666666666,Ba_5_V35,F,20_R,TCCGTTGAATAAGCAGTAT,19,45.529719935565204,0.9427975115480152,36.84210526315789,2,0.0,R,S6,A0706,Ba,,0
25887,20_F,GTATGTGACGGGAGCCAA,20,18,50.94793338111992,4.475415934006712,55.555555555555564,3,0.16666666666666666,Ba_5_V35,F,20_R,TCCGTTGAATAAGCAGTAT,19,45.529719935565204,0.9427975115480152,36.84210526315789,2,0.0,R,S5,A0615,Ba,,0
25888,20_F,GTATGTGACGGGAGCCAA,20,18,50.94793338111992,4.475415934006712,55.555555555555564,3,0.16666666666666666,Ba_5_V35,F,20_R,TCCGTTGAATAAGCAGTAT,19,45.529719935565204,0.9427975115480152,36.84210526315789,2,0.0,R,S4,A0605,Ba,,55
26090,20_F,GTATGTGACGGGAGCCAA,20,18,50.94793338111992,4.645751641534034,55.555555555555564,3,0.16666666666666666,Ba_5_V3,F,20_R,TCCGTTGAATAAGCAGTAT,19,45.529719935565204,0.7724618040206934,36.84210526315789,2,0.0,R,S6,A0706,Ba,,0
26091,20_F,GTATGTGACGGGAGCCAA,20,18,50.94793338111992,4.645751641534034,55.555555555555564,3,0.16666666666666666,Ba_5_V3,F,20_R,TCCGTTGAATAAGCAGTAT,19,45.529719935565204,0.7724618040206934,36.84210526315789,2,0.0,R,S5,A0615,Ba,,0
26092,20_F,GTATGTGACGGGAGCCAA,20,18,50.94793338111992,4.645751641534034,55.555555555555564,3,0.16666666666666666,Ba_5_V3,F,20_R,TCCGTTGAATAAGCAGTAT,19,45.529719935565204,0.7724618040206934,36.84210526315789,2,0.0,R,S4,A0605,Ba,,55
26093,20_F,GTATGTGACGGGAGCCAA,20,18,50.94793338111992,4.645751641534034,55.555555555555564,3,0.16666666666666666,Ba_5_V3,F,20_R,TCCGTTGAATAAGCAGTAT,19,45.529719935565204,0.7724618040206934,36.84210526315789,2,0.0,R,S2,A0330,Ba,,0
25685,20_F,GTATGTGACGGGAGCCAA,20,18,50.94793338111992,4.645751641534034,55.555555555555564,3,0.16666666666666666,Ba_4,F,20_R,TCCGTTGAATAAGCAGTAT,19,45.529719935565204,0.7724618040206934,36.84210526315789,2,0.0,R,S2,A0330,Ba,,0
25684,20_F,GTATGTGACGGGAGCCAA,20,18,50.94793338111992,4.645751641534034,55.555555555555564,3,0.16666666666666666,Ba_4,F,20_R,TCCGTTGAATAAGCAGTAT,19,45.529719935565204,0.7724618040206934,36.84210526315789,2,0.0,R,S4,A0605,Ba,,55
25683,20_F,GTATGTGACGGGAGCCAA,20,18,50.94793338111992,4.645751641534034,55.555555555555564,3,0.16666666666666666,Ba_4,F,20_R,TCCGTTGAATAAGCAGTAT,19,45.529719935565204,0.7724618040206934,36.84210526315789,2,0.0,R,S5,A0615,Ba,,0
25682,20_F,GTATGTGACGGGAGCCAA,20,18,50.94793338111992,4.645751641534034,55.555555555555564,3,0.16666666666666666,Ba_4,F,20_R,TCCGTTGAATAAGCAGTAT,19,45.529719935565204,0.7724618040206934,36.84210526315789,2,0.0,R,S6,A0706,Ba,,0
25757,20_F,GTATGTGACGGGAGCCAA,20,18,50.94793338111992,4.645751641534034,55.555555555555564,3,0.16666666666666666,Ba_4,F,20_R,TCCGTTGAATAAGCAGTAT,19,45.529719935565204,0.7724618040206934,36.84210526315789,2,0.0,R,S144,BA-BaBTSeqBa007P2--xx-xxx-xxxx-021-SF,Ba,,382
26981,20_F,ATAAGTATGTGACGGGAGCCA,20,21,52.67416695220601,1.1017531336682609,47.61904761904761,3,0.14285714285714285,Ba_LowSH,F,20_R,GTTCCGTTGAATAAGCAGTA,20,47.700246320128095,3.87216749840966,40.0,2,0.0,R,S144,BA-BaBTSeqBa007P2--xx-xxx-xxxx-021-SF,Ba,,382
26909,20_F,ATAAGTATGTGACGGGAGCCA,20,21,52.67416695220601,1.1017531336682609,47.61904761904761,3,0.14285714285714285,Ba_LowSH,F,20_R,GTTCCGTTGAATAAGCAGTA,20,47.700246320128095,3.87216749840966,40.0,2,0.0,R,S2,A0330,Ba,,0
26777,20_F,ATAAGTATGTGACGGGAGCCA,20,21,52.67416695220601,1.1517208440621545,47.61904761904761,3,0.14285714285714285,Ba_HighSpec,F,20_R,GTTCCGTTGAATAAGCAGTA,20,47.700246320128095,3.8221997880157663,40.0,2,0.0,R,S144,BA-BaBTSeqBa007P2--xx-xxx-xxxx-021-SF,Ba,,382
26908,20_F,ATAAGTATGTGACGGGAGCCA,20,21,52.67416695220601,1.1017531336682609,47.61904761904761,3,0.14285714285714285,Ba_LowSH,F,20_R,GTTCCGTTGAATAAGCAGTA,20,47.700246320128095,3.87216749840966,40.0,2,0.0,R,S4,A0605,Ba,,55
26907,20_F,ATAAGTATGTGACGGGAGCCA,20,21,52.67416695220601,1.1017531336682609,47.61904761904761,3,0.14285714285714285,Ba_LowSH,F,20_R,GTTCCGTTGAATAAGCAGTA,20,47.700246320128095,3.87216749840966,40.0,2,0.0,R,S5,A0615,Ba,,0
26906,20_F,ATAAGTATGTGACGGGAGCCA,20,21,52.67416695220601,1.1017531336682609,47.61904761904761,3,0.14285714285714285,Ba_LowSH,F,20_R,GTTCCGTTGAATAAGCAGTA,20,47.700246320128095,3.87216749840966,40.0,2,0.0,R,S6,A0706,Ba,,0
27314,20_F,GTATGTGACGGGAGCCAA,20,18,50.94793338111992,3.732809720377311,55.555555555555564,3,0.16666666666666666,Ba_V45,F,20_R,TCCGTTGAATAAGCAGTAT,19,45.529719935565204,1.685403725177416,36.84210526315789,2,0.0,R,S6,A0706,Ba,,0
27315,20_F,GTATGTGACGGGAGCCAA,20,18,50.94793338111992,3.732809720377311,55.555555555555564,3,0.16666666666666666,Ba_V45,F,20_R,TCCGTTGAATAAGCAGTAT,19,45.529719935565204,1.685403725177416,36.84210526315789,2,0.0,R,S5,A0615,Ba,,0
27316,20_F,GTATGTGACGGGAGCCAA,20,18,50.94793338111992,3.732809720377311,55.555555555555564,3,0.16666666666666666,Ba_V45,F,20_R,TCCGTTGAATAAGCAGTAT,19,45.529719935565204,1.685403725177416,36.84210526315789,2,0.0,R,S4,A0605,Ba,,55
27317,20_F,GTATGTGACGGGAGCCAA,20,18,50.94793338111992,3.732809720377311,55.555555555555564,3,0.16666666666666666,Ba_V45,F,20_R,TCCGTTGAATAAGCAGTAT,19,45.529719935565204,1.685403725177416,36.84210526315789,2,0.0,R,S2,A0330,Ba,,0
27112,20_F,TATGTGACGGGAGCCAACC,20,19,53.59643523678864,2.8813506299858465,57.894736842105274,3,0.15789473684210525,Ba_OkX,F,20_R,CCGATGTGGAAGGTAAG,17,45.67844977780482,5.0366348289979745,52.941176470588246,2,0.0,R,S4,A0605,Ba,,55
27111,20_F,TATGTGACGGGAGCCAACC,20,19,53.59643523678864,2.8813506299858465,57.894736842105274,3,0.15789473684210525,Ba_OkX,F,20_R,CCGATGTGGAAGGTAAG,17,45.67844977780482,5.0366348289979745,52.941176470588246,2,0.0,R,S5,A0615,Ba,,0
27110,20_F,TATGTGACGGGAGCCAACC,20,19,53.59643523678864,2.8813506299858465,57.894736842105274,3,0.15789473684210525,Ba_OkX,F,20_R,CCGATGTGGAAGGTAAG,17,45.67844977780482,5.0366348289979745,52.941176470588246,2,0.0,R,S6,A0706,Ba,,0
27113,20_F,TATGTGACGGGAGCCAACC,20,19,53.59643523678864,2.8813506299858465,57.894736842105274,3,0.15789473684210525,Ba_OkX,F,20_R,CCGATGTGGAAGGTAAG,17,45.67844977780482,5.0366348289979745,52.941176470588246,2,0.0,R,S2,A0330,Ba,,0
27185,20_F,TATGTGACGGGAGCCAACC,20,19,53.59643523678864,2.8813506299858465,57.894736842105274,3,0.15789473684210525,Ba_OkX,F,20_R,CCGATGTGGAAGGTAAG,17,45.67844977780482,5.0366348289979745,52.941176470588246,2,0.0,R,S144,BA-BaBTSeqBa007P2--xx-xxx-xxxx-021-SF,Ba,,382
26369,20_F,GTATGTGACGGGAGCCAA,20,18,50.94793338111992,3.7048697556043138,55.555555555555564,3,0.16666666666666666,Ba_6_V4,F,20_R,TCCGTTGAATAAGCAGTAT,19,45.529719935565204,1.7133436899504133,36.84210526315789,2,0.0,R,S144,BA-BaBTSeqBa007P2--xx-xxx-xxxx-021-SF,Ba,,382
26297,20_F,GTATGTGACGGGAGCCAA,20,18,50.94793338111992,3.7048697556043138,55.555555555555564,3,0.16666666666666666,Ba_6_V4,F,20_R,TCCGTTGAATAAGCAGTAT,19,45.529719935565204,1.7133436899504133,36.84210526315789,2,0.0,R,S2,A0330,Ba,,0