,Primer_Name_L,Seq_L,Amplicon,Primer_Length_L,Tm_L,Delta Tm_L,GC_Content_L,Length_Longest_Homopolymer_L,Percent_Homopolymer_L,exp,flank_L,Primer_Name_R,Seq_R,Primer_Length_R,Tm_R,Delta Tm_R,GC_Content_R,Length_Longest_Homopolymer_R,Percent_Homopolymer_R,flank_R,sample_id,sample_name,species,strain,n_reads
89523,33_F,TTCCATGTTATTTTCCTCCTG,33,21,47.6309405876737,0.38787696215809575,38.095238095238095,4,0.19047619047619047,Ba_6_V4,F,33_R,ATAAAGCGATTCCTCACA,18,45.06417730828753,2.178886317228084,38.888888888888886,3,0.16666666666666666,R,S4,A0605,Ba,,88
89957,33_F,GGATGTATGCATTGCTGGA,33,19,49.57263092666426,1.8522588259784245,47.368421052631575,2,0.0,Yp_1,F,33_R,ACAATGTGTTCATCTTGATAG,21,45.844016634668606,5.580873117974079,33.33333333333333,2,0.0,R,S144,BA-BaBTSeqBa007P2--xx-xxx-xxxx-021-SF,Ba,,188
37054,34_F,GTAGGAGAGGTGAGAAAT,34,18,43.905886211607935,0.9304219141490648,44.444444444444436,3,0.16666666666666666,Ba_1,F,34_R,TTGTTCTATCCATAGGATAAA,21,43.029455136632244,1.806852989124764,28.57142857142857,3,0.14285714285714285,R,S144,BA-BaBTSeqBa007P2--xx-xxx-xxxx-021-SF,Ba,,0
37004,34_F,GTAGGAGAGGTGAGAAAT,34,18,43.905886211607935,0.9304219141490648,44.444444444444436,3,0.16666666666666666,Ba_1,F,34_R,TTGTTCTATCCATAGGATAAA,21,43.029455136632244,1.806852989124764,28.57142857142857,3,0.14285714285714285,R,S5,A0615,Ba,,0
37003,34_F,GTAGGAGAGGTGAGAAAT,34,18,43.905886211607935,0.9304219141490648,44.444444444444436,3,0.16666666666666666,Ba_1,F,34_R,TTGTTCTATCCATAGGATAAA,21,43.029455136632244,1.806852989124764,28.57142857142857,3,0.14285714285714285,R,S4,A0605,Ba,,0
37002,34_F,GTAGGAGAGGTGAGAAAT,34,18,43.905886211607935,0.9304219141490648,44.444444444444436,3,0.16666666666666666,Ba_1,F,34_R,TTGTTCTATCCATAGGATAAA,21,43.029455136632244,1.806852989124764,28.57142857142857,3,0.14285714285714285,R,S2,A0330,Ba,,0
37230,34_F,GTAGGAGAGGTGAGAAAT,34,18,43.905886211607935,0.9304219141490648,44.444444444444436,3,0.16666666666666666,Ba_3,F,34_R,TTGTTCTATCCATAGGATAAA,21,43.029455136632244,1.806852989124764,28.57142857142857,3,0.14285714285714285,R,S144,BA-BaBTSeqBa007P2--xx-xxx-xxxx-021-SF,Ba,,0
37266,34_F,AAAGTTAAGGTAGGAGAGGTG,34,21,48.413140178160006,2.110958438574116,42.857142857142854,3,0.14285714285714285,Ba_4,F,34_R,CATAATCTCATAACCATAAC,20,40.58897663868464,5.713205100901249,30.0,2,0.0,R,S2,A0330,Ba,,0
37267,34_F,AAAGTTAAGGTAGGAGAGGTG,34,21,48.413140178160006,2.110958438574116,42.857142857142854,3,0.14285714285714285,Ba_4,F,34_R,CATAATCTCATAACCATAAC,20,40.58897663868464,5.713205100901249,30.0,2,0.0,R,S4,A0605,Ba,,0
37268,34_F,AAAGTTAAGGTAGGAGAGGTG,34,21,48.413140178160006,2.110958438574116,42.857142857142854,3,0.14285714285714285,Ba_4,F,34_R,CATAATCTCATAACCATAAC,20,40.58897663868464,5.713205100901249,30.0,2,0.0,R,S5,A0615,Ba,,0
37090,34_F,GTAGGAGAGGTGAGAAAT,34,18,43.905886211607935,0.9304219141490648,44.444444444444436,3,0.16666666666666666,Ba_2,F,34_R,TTGTTCTATCCATAGGATAAA,21,43.029455136632244,1.806852989124764,28.57142857142857,3,0.14285714285714285,R,S2,A0330,Ba,,0
37091,34_F,GTAGGAGAGGTGAGAAAT,34,18,43.905886211607935,0.9304219141490648,44.444444444444436,3,0.16666666666666666,Ba_2,F,34_R,TTGTTCTATCCATAGGATAAA,21,43.029455136632244,1.806852989124764,28.57142857142857,3,0.14285714285714285,R,S4,A0605,Ba,,0
37092,34_F,GTAGGAGAGGTGAGAAAT,34,18,43.905886211607935,0.9304219141490648,44.444444444444436,3,0.16666666666666666,Ba_2,F,34_R,TTGTTCTATCCATAGGATAAA,21,43.029455136632244,1.806852989124764,28.57142857142857,3,0.14285714285714285,R,S5,A0615,Ba,,0
37178,34_F,GTAGGAGAGGTGAGAAAT,34,18,43.905886211607935,0.9304219141490648,44.444444444444436,3,0.16666666666666666,Ba_3,F,34_R,TTGTTCTATCCATAGGATAAA,21,43.029455136632244,1.806852989124764,28.57142857142857,3,0.14285714285714285,R,S2,A0330,Ba,,0
37179,34_F,GTAGGAGAGGTGAGAAAT,34,18,43.905886211607935,0.9304219141490648,44.444444444444436,3,0.16666666666666666,Ba_3,F,34_R,TTGTTCTATCCATAGGATAAA,21,43.029455136632244,1.806852989124764,28.57142857142857,3,0.14285714285714285,R,S4,A0605,Ba,,0
37180,34_F,GTAGGAGAGGTGAGAAAT,34,18,43.905886211607935,0.9304219141490648,44.444444444444436,3,0.16666666666666666,Ba_3,F,34_R,TTGTTCTATCCATAGGATAAA,21,43.029455136632244,1.806852989124764,28.57142857142857,3,0.14285714285714285,R,S5,A0615,Ba,,0
37142,34_F,GTAGGAGAGGTGAGAAAT,34,18,43.905886211607935,0.9304219141490648,44.444444444444436,3,0.16666666666666666,Ba_2,F,34_R,TTGTTCTATCCATAGGATAAA,21,43.029455136632244,1.806852989124764,28.57142857142857,3,0.14285714285714285,R,S144,BA-BaBTSeqBa007P2--xx-xxx-xxxx-021-SF,Ba,,0
37795,34_F,TCTTGATAGCCTTGATTACCAGA,34,23,50.799645493902005,1.1975847265823845,39.130434782608695,2,0.0,Yp_2,F,34_R,AACTCTCTCAACTGCTGA,18,46.84067171142618,5.156558509058208,44.444444444444436,2,0.0,R,S4,A0605,Ba,,0
37670,34_F,TTAGTTGATTCTCATTGCC,34,19,44.665788534225776,6.500423120458329,36.84210526315789,2,0.0,Yp_1_V2,F,34_R,CTTACGCTCACCAATCAATGC,21,52.27651017749702,1.1102985228129043,47.61904761904761,2,0.0,R,S144,BA-BaBTSeqBa007P2--xx-xxx-xxxx-021-SF,Ba,,0
37706,34_F,TTAGTTGATTCTCATTGCC,34,19,44.665788534225776,6.759101218416902,36.84210526315789,2,0.0,Yp_1,F,34_R,CTTACGCTCACCAATCAATGC,21,52.27651017749702,0.8516204248543318,47.61904761904761,2,0.0,R,S2,A0330,Ba,,0
37707,34_F,TTAGTTGATTCTCATTGCC,34,19,44.665788534225776,6.759101218416902,36.84210526315789,2,0.0,Yp_1,F,34_R,CTTACGCTCACCAATCAATGC,21,52.27651017749702,0.8516204248543318,47.61904761904761,2,0.0,R,S4,A0605,Ba,,0
37708,34_F,TTAGTTGATTCTCATTGCC,34,19,44.665788534225776,6.759101218416902,36.84210526315789,2,0.0,Yp_1,F,34_R,CTTACGCTCACCAATCAATGC,21,52.27651017749702,0.8516204248543318,47.61904761904761,2,0.0,R,S5,A0615,Ba,,0
37582,34_F,AAAAGTTAAGGTAGGAGAGGTGA,34,23,50.56182174815223,3.3466980874096137,39.130434782608695,4,0.17391304347826084,Ba_V45,F,34_R,CTTGTTCTATCCATAGGATA,20,42.522490653913344,4.692633006829276,35.0,2,0.0,R,S144,BA-BaBTSeqBa007P2--xx-xxx-xxxx-021-SF,Ba,,0
37618,34_F,TTAGTTGATTCTCATTGCC,34,19,44.665788534225776,6.500423120458329,36.84210526315789,2,0.0,Yp_1_V2,F,34_R,CTTACGCTCACCAATCAATGC,21,52.27651017749702,1.1102985228129043,47.61904761904761,2,0.0,R,S2,A0330,Ba,,0
37619,34_F,TTAGTTGATTCTCATTGCC,34,19,44.665788534225776,6.500423120458329,36.84210526315789,2,0.0,Yp_1_V2,F,34_R,CTTACGCTCACCAATCAATGC,21,52.27651017749702,1.1102985228129043,47.61904761904761,2,0.0,R,S4,A0605,Ba,,0
37620,34_F,TTAGTTGATTCTCATTGCC,34,19,44.665788534225776,6.500423120458329,36.84210526315789,2,0.0,Yp_1_V2,F,34_R,CTTACGCTCACCAATCAATGC,21,52.27651017749702,1.1102985228129043,47.61904761904761,2,0.0,R,S5,A0615,Ba,,0
37846,34_F,TCTTGATAGCCTTGATTACCAGA,34,23,50.799645493902005,1.1975847265823845,39.130434782608695,2,0.0,Yp_2,F,34_R,AACTCTCTCAACTGCTGA,18,46.84067171142618,5.156558509058208,44.444444444444436,2,0.0,R,S144,BA-BaBTSeqBa007P2--xx-xxx-xxxx-021-SF,Ba,,0
37758,34_F,TTAGTTGATTCTCATTGCC,34,19,44.665788534225776,6.759101218416902,36.84210526315789,2,0.0,Yp_1,F,34_R,CTTACGCTCACCAATCAATGC,21,52.27651017749702,0.8516204248543318,47.61904761904761,2,0.0,R,S144,BA-BaBTSeqBa007P2--xx-xxx-xxxx-021-SF,Ba,,0
37796,34_F,TCTTGATAGCCTTGATTACCAGA,34,23,50.799645493902005,1.1975847265823845,39.130434782608695,2,0.0,Yp_2,F,34_R,AACTCTCTCAACTGCTGA,18,46.84067171142618,5.156558509058208,44.444444444444436,2,0.0,R,S5,A0615,Ba,,0
37794,34_F,TCTTGATAGCCTTGATTACCAGA,34,23,50.799645493902005,1.1975847265823845,39.130434782608695,2,0.0,Yp_2,F,34_R,AACTCTCTCAACTGCTGA,18,46.84067171142618,5.156558509058208,44.444444444444436,2,0.0,R,S2,A0330,Ba,,0
37406,34_F,AAAGTTAAGGTAGGAGAGGTG,34,21,48.413140178160006,2.110958438574116,42.857142857142854,3,0.14285714285714285,Ba_5_V3,F,34_R,CATAATCTCATAACCATAAC,20,40.58897663868464,5.713205100901249,30.0,2,0.0,R,S144,BA-BaBTSeqBa007P2--xx-xxx-xxxx-021-SF,Ba,,0
37318,34_F,AAAGTTAAGGTAGGAGAGGTG,34,21,48.413140178160006,2.110958438574116,42.857142857142854,3,0.14285714285714285,Ba_4,F,34_R,CATAATCTCATAACCATAAC,20,40.58897663868464,5.713205100901249,30.0,2,0.0,R,S144,BA-BaBTSeqBa007P2--xx-xxx-xxxx-021-SF,Ba,,0
37356,34_F,AAAGTTAAGGTAGGAGAGGTG,34,21,48.413140178160006,2.110958438574116,42.857142857142854,3,0.14285714285714285,Ba_5_V3,F,34_R,CATAATCTCATAACCATAAC,20,40.58897663868464,5.713205100901249,30.0,2,0.0,R,S5,A0615,Ba,,0
37355,34_F,AAAGTTAAGGTAGGAGAGGTG,34,21,48.413140178160006,2.110958438574116,42.857142857142854,3,0.14285714285714285,Ba_5_V3,F,34_R,CATAATCTCATAACCATAAC,20,40.58897663868464,5.713205100901249,30.0,2,0.0,R,S4,A0605,Ba,,0
37354,34_F,AAAGTTAAGGTAGGAGAGGTG,34,21,48.413140178160006,2.110958438574116,42.857142857142854,3,0.14285714285714285,Ba_5_V3,F,34_R,CATAATCTCATAACCATAAC,20,40.58897663868464,5.713205100901249,30.0,2,0.0,R,S2,A0330,Ba,,0
37530,34_F,AAAAGTTAAGGTAGGAGAGGTGA,34,23,50.56182174815223,3.3466980874096137,39.130434782608695,4,0.17391304347826084,Ba_V45,F,34_R,CTTGTTCTATCCATAGGATA,20,42.522490653913344,4.692633006829276,35.0,2,0.0,R,S2,A0330,Ba,,0
37532,34_F,AAAAGTTAAGGTAGGAGAGGTGA,34,23,50.56182174815223,3.3466980874096137,39.130434782608695,4,0.17391304347826084,Ba_V45,F,34_R,CTTGTTCTATCCATAGGATA,20,42.522490653913344,4.692633006829276,35.0,2,0.0,R,S5,A0615,Ba,,0
37531,34_F,AAAAGTTAAGGTAGGAGAGGTGA,34,23,50.56182174815223,3.3466980874096137,39.130434782608695,4,0.17391304347826084,Ba_V45,F,34_R,CTTGTTCTATCCATAGGATA,20,42.522490653913344,4.692633006829276,35.0,2,0.0,R,S4,A0605,Ba,,0
37444,34_F,AAAAGTTAAGGTAGGAGAGGTGA,34,23,50.56182174815223,3.3187581226366163,39.130434782608695,4,0.17391304347826084,Ba_6_V4,F,34_R,CTTGTTCTATCCATAGGATA,20,42.522490653913344,4.720572971602274,35.0,2,0.0,R,S5,A0615,Ba,,0
37443,34_F,AAAAGTTAAGGTAGGAGAGGTGA,34,23,50.56182174815223,3.3187581226366163,39.130434782608695,4,0.17391304347826084,Ba_6_V4,F,34_R,CTTGTTCTATCCATAGGATA,20,42.522490653913344,4.720572971602274,35.0,2,0.0,R,S4,A0605,Ba,,0
37442,34_F,AAAAGTTAAGGTAGGAGAGGTGA,34,23,50.56182174815223,3.3187581226366163,39.130434782608695,4,0.17391304347826084,Ba_6_V4,F,34_R,CTTGTTCTATCCATAGGATA,20,42.522490653913344,4.720572971602274,35.0,2,0.0,R,S2,A0330,Ba,,0
37494,34_F,AAAAGTTAAGGTAGGAGAGGTGA,34,23,50.56182174815223,3.3187581226366163,39.130434782608695,4,0.17391304347826084,Ba_6_V4,F,34_R,CTTGTTCTATCCATAGGATA,20,42.522490653913344,4.720572971602274,35.0,2,0.0,R,S144,BA-BaBTSeqBa007P2--xx-xxx-xxxx-021-SF,Ba,,0
74637,35_F,AAATTAAGATCAAGAGACGTGT,35,22,47.704873449405405,3.7200163032372875,31.818181818181817,3,0.13636363636363635,Yp_1,F,35_R,CGCGCCGTCATAAGTCAG,18,53.24056687017771,1.8156771175350173,61.111111111111114,2,0.0,R,S144,BA-BaBTSeqBa007P2--xx-xxx-xxxx-021-SF,Ba,,8
74258,35_F,ATCCCTCCATCTTTTCTGA,35,19,46.67335841807522,0.5697052074403857,42.105263157894726,4,0.3684210526315789,Ba_6_V4,F,35_R,GGTCAGTAAAACAAAAGC,18,43.74993350518906,3.493130120326548,38.888888888888886,4,0.4444444444444444,R,S2,A0330,Ba,,0
74259,35_F,ATCCCTCCATCTTTTCTGA,35,19,46.67335841807522,0.5697052074403857,42.105263157894726,4,0.3684210526315789,Ba_6_V4,F,35_R,GGTCAGTAAAACAAAAGC,18,43.74993350518906,3.493130120326548,38.888888888888886,4,0.4444444444444444,R,S5,A0615,Ba,,0
74260,35_F,ATCCCTCCATCTTTTCTGA,35,19,46.67335841807522,0.5697052074403857,42.105263157894726,4,0.3684210526315789,Ba_6_V4,F,35_R,GGTCAGTAAAACAAAAGC,18,43.74993350518906,3.493130120326548,38.888888888888886,4,0.4444444444444444,R,S6,A0706,Ba,,0
74261,35_F,ATCCCTCCATCTTTTCTGA,35,19,46.67335841807522,0.5697052074403857,42.105263157894726,4,0.3684210526315789,Ba_6_V4,F,35_R,GGTCAGTAAAACAAAAGC,18,43.74993350518906,3.493130120326548,38.888888888888886,4,0.4444444444444444,R,S4,A0605,Ba,,267
74690,35_F,GAGAAACTATCATTGGCTA,35,19,43.38067187869598,8.616558341788412,36.84210526315789,3,0.15789473684210525,Yp_2,F,35_R,GACAACGTAGACGCTAAG,18,47.253725731109675,4.743504489374708,50.0,2,0.0,R,S2,A0330,Ba,,0
74691,35_F,GAGAAACTATCATTGGCTA,35,19,43.38067187869598,8.616558341788412,36.84210526315789,3,0.15789473684210525,Yp_2,F,35_R,GACAACGTAGACGCTAAG,18,47.253725731109675,4.743504489374708,50.0,2,0.0,R,S5,A0615,Ba,,0
74692,35_F,GAGAAACTATCATTGGCTA,35,19,43.38067187869598,8.616558341788412,36.84210526315789,3,0.15789473684210525,Yp_2,F,35_R,GACAACGTAGACGCTAAG,18,47.253725731109675,4.743504489374708,50.0,2,0.0,R,S6,A0706,Ba,,0
74693,35_F,GAGAAACTATCATTGGCTA,35,19,43.38067187869598,8.616558341788412,36.84210526315789,3,0.15789473684210525,Yp_2,F,35_R,GACAACGTAGACGCTAAG,18,47.253725731109675,4.743504489374708,50.0,2,0.0,R,S4,A0605,Ba,,267
74153,35_F,TTGACAATGTTTGACAAGT,35,19,44.91854698782959,1.383634751756304,31.578947368421048,3,0.15789473684210525,Ba_5_V3,F,35_R,AAAGCAAGCTTAAGCACTA,19,46.69641150961264,0.3942297700267403,36.84210526315789,3,0.15789473684210525,R,S4,A0605,Ba,,267
74152,35_F,TTGACAATGTTTGACAAGT,35,19,44.91854698782959,1.383634751756304,31.578947368421048,3,0.15789473684210525,Ba_5_V3,F,35_R,AAAGCAAGCTTAAGCACTA,19,46.69641150961264,0.3942297700267403,36.84210526315789,3,0.15789473684210525,R,S6,A0706,Ba,,0
74151,35_F,TTGACAATGTTTGACAAGT,35,19,44.91854698782959,1.383634751756304,31.578947368421048,3,0.15789473684210525,Ba_5_V3,F,35_R,AAAGCAAGCTTAAGCACTA,19,46.69641150961264,0.3942297700267403,36.84210526315789,3,0.15789473684210525,R,S5,A0615,Ba,,0
74150,35_F,TTGACAATGTTTGACAAGT,35,19,44.91854698782959,1.383634751756304,31.578947368421048,3,0.15789473684210525,Ba_5_V3,F,35_R,AAAGCAAGCTTAAGCACTA,19,46.69641150961264,0.3942297700267403,36.84210526315789,3,0.15789473684210525,R,S2,A0330,Ba,,0
74205,35_F,TTGACAATGTTTGACAAGT,35,19,44.91854698782959,1.383634751756304,31.578947368421048,3,0.15789473684210525,Ba_5_V3,F,35_R,AAAGCAAGCTTAAGCACTA,19,46.69641150961264,0.3942297700267403,36.84210526315789,3,0.15789473684210525,R,S144,BA-BaBTSeqBa007P2--xx-xxx-xxxx-021-SF,Ba,,8
74369,35_F,ATCCCTCCATCTTTTCTGA,35,19,46.67335841807522,0.5417652426673882,42.105263157894726,4,0.3684210526315789,Ba_V45,F,35_R,GGTCAGTAAAACAAAAGC,18,43.74993350518906,3.4651901555535503,38.888888888888886,4,0.4444444444444444,R,S4,A0605,Ba,,267
74368,35_F,ATCCCTCCATCTTTTCTGA,35,19,46.67335841807522,0.5417652426673882,42.105263157894726,4,0.3684210526315789,Ba_V45,F,35_R,GGTCAGTAAAACAAAAGC,18,43.74993350518906,3.4651901555535503,38.888888888888886,4,0.4444444444444444,R,S6,A0706,Ba,,0
74367,35_F,ATCCCTCCATCTTTTCTGA,35,19,46.67335841807522,0.5417652426673882,42.105263157894726,4,0.3684210526315789,Ba_V45,F,35_R,GGTCAGTAAAACAAAAGC,18,43.74993350518906,3.4651901555535503,38.888888888888886,4,0.4444444444444444,R,S5,A0615,Ba,,0
74366,35_F,ATCCCTCCATCTTTTCTGA,35,19,46.67335841807522,0.5417652426673882,42.105263157894726,4,0.3684210526315789,Ba_V45,F,35_R,GGTCAGTAAAACAAAAGC,18,43.74993350518906,3.4651901555535503,38.888888888888886,4,0.4444444444444444,R,S2,A0330,Ba,,0
74313,35_F,ATCCCTCCATCTTTTCTGA,35,19,46.67335841807522,0.5697052074403857,42.105263157894726,4,0.3684210526315789,Ba_6_V4,F,35_R,GGTCAGTAAAACAAAAGC,18,43.74993350518906,3.493130120326548,38.888888888888886,4,0.4444444444444444,R,S144,BA-BaBTSeqBa007P2--xx-xxx-xxxx-021-SF,Ba,,8
74745,35_F,GAGAAACTATCATTGGCTA,35,19,43.38067187869598,8.616558341788412,36.84210526315789,3,0.15789473684210525,Yp_2,F,35_R,GACAACGTAGACGCTAAG,18,47.253725731109675,4.743504489374708,50.0,2,0.0,R,S144,BA-BaBTSeqBa007P2--xx-xxx-xxxx-021-SF,Ba,,8
74421,35_F,ATCCCTCCATCTTTTCTGA,35,19,46.67335841807522,0.5417652426673882,42.105263157894726,4,0.3684210526315789,Ba_V45,F,35_R,GGTCAGTAAAACAAAAGC,18,43.74993350518906,3.4651901555535503,38.888888888888886,4,0.4444444444444444,R,S144,BA-BaBTSeqBa007P2--xx-xxx-xxxx-021-SF,Ba,,8
74529,35_F,AAATTAAGATCAAGAGACGTGT,35,22,47.704873449405405,3.4613382052787145,31.818181818181817,3,0.13636363636363635,Yp_1_V2,F,35_R,CGCGCCGTCATAAGTCAG,18,53.24056687017771,2.0743552154935903,61.111111111111114,2,0.0,R,S144,BA-BaBTSeqBa007P2--xx-xxx-xxxx-021-SF,Ba,,8
74582,35_F,AAATTAAGATCAAGAGACGTGT,35,22,47.704873449405405,3.7200163032372875,31.818181818181817,3,0.13636363636363635,Yp_1,F,35_R,CGCGCCGTCATAAGTCAG,18,53.24056687017771,1.8156771175350173,61.111111111111114,2,0.0,R,S2,A0330,Ba,,0
74583,35_F,AAATTAAGATCAAGAGACGTGT,35,22,47.704873449405405,3.7200163032372875,31.818181818181817,3,0.13636363636363635,Yp_1,F,35_R,CGCGCCGTCATAAGTCAG,18,53.24056687017771,1.8156771175350173,61.111111111111114,2,0.0,R,S5,A0615,Ba,,0
74584,35_F,AAATTAAGATCAAGAGACGTGT,35,22,47.704873449405405,3.7200163032372875,31.818181818181817,3,0.13636363636363635,Yp_1,F,35_R,CGCGCCGTCATAAGTCAG,18,53.24056687017771,1.8156771175350173,61.111111111111114,2,0.0,R,S6,A0706,Ba,,0
73826,35_F,TTGACAATGTTTGACAAGT,35,19,44.91854698782959,0.08223886207258603,31.578947368421048,3,0.15789473684210525,Ba_2,F,35_R,AAAGCAAGCTTAAGCACTA,19,46.69641150961264,1.8601033838556305,36.84210526315789,3,0.15789473684210525,R,S2,A0330,Ba,,0
73827,35_F,TTGACAATGTTTGACAAGT,35,19,44.91854698782959,0.08223886207258603,31.578947368421048,3,0.15789473684210525,Ba_2,F,35_R,AAAGCAAGCTTAAGCACTA,19,46.69641150961264,1.8601033838556305,36.84210526315789,3,0.15789473684210525,R,S5,A0615,Ba,,0
73828,35_F,TTGACAATGTTTGACAAGT,35,19,44.91854698782959,0.08223886207258603,31.578947368421048,3,0.15789473684210525,Ba_2,F,35_R,AAAGCAAGCTTAAGCACTA,19,46.69641150961264,1.8601033838556305,36.84210526315789,3,0.15789473684210525,R,S6,A0706,Ba,,0
73829,35_F,TTGACAATGTTTGACAAGT,35,19,44.91854698782959,0.08223886207258603,31.578947368421048,3,0.15789473684210525,Ba_2,F,35_R,AAAGCAAGCTTAAGCACTA,19,46.69641150961264,1.8601033838556305,36.84210526315789,3,0.15789473684210525,R,S4,A0605,Ba,,267
74585,35_F,AAATTAAGATCAAGAGACGTGT,35,22,47.704873449405405,3.7200163032372875,31.818181818181817,3,0.13636363636363635,Yp_1,F,35_R,CGCGCCGTCATAAGTCAG,18,53.24056687017771,1.8156771175350173,61.111111111111114,2,0.0,R,S4,A0605,Ba,,267
74474,35_F,AAATTAAGATCAAGAGACGTGT,35,22,47.704873449405405,3.4613382052787145,31.818181818181817,3,0.13636363636363635,Yp_1_V2,F,35_R,CGCGCCGTCATAAGTCAG,18,53.24056687017771,2.0743552154935903,61.111111111111114,2,0.0,R,S2,A0330,Ba,,0
74475,35_F,AAATTAAGATCAAGAGACGTGT,35,22,47.704873449405405,3.4613382052787145,31.818181818181817,3,0.13636363636363635,Yp_1_V2,F,35_R,CGCGCCGTCATAAGTCAG,18,53.24056687017771,2.0743552154935903,61.111111111111114,2,0.0,R,S5,A0615,Ba,,0
74476,35_F,AAATTAAGATCAAGAGACGTGT,35,22,47.704873449405405,3.4613382052787145,31.818181818181817,3,0.13636363636363635,Yp_1_V2,F,35_R,CGCGCCGTCATAAGTCAG,18,53.24056687017771,2.0743552154935903,61.111111111111114,2,0.0,R,S6,A0706,Ba,,0
74477,35_F,AAATTAAGATCAAGAGACGTGT,35,22,47.704873449405405,3.4613382052787145,31.818181818181817,3,0.13636363636363635,Yp_1_V2,F,35_R,CGCGCCGTCATAAGTCAG,18,53.24056687017771,2.0743552154935903,61.111111111111114,2,0.0,R,S4,A0605,Ba,,267
73773,35_F,TTGACAATGTTTGACAAGT,35,19,44.91854698782959,0.08223886207258603,31.578947368421048,3,0.15789473684210525,Ba_1,F,35_R,AAAGCAAGCTTAAGCACTA,19,46.69641150961264,1.8601033838556305,36.84210526315789,3,0.15789473684210525,R,S144,BA-BaBTSeqBa007P2--xx-xxx-xxxx-021-SF,Ba,,8
73718,35_F,TTGACAATGTTTGACAAGT,35,19,44.91854698782959,0.08223886207258603,31.578947368421048,3,0.15789473684210525,Ba_1,F,35_R,AAAGCAAGCTTAAGCACTA,19,46.69641150961264,1.8601033838556305,36.84210526315789,3,0.15789473684210525,R,S2,A0330,Ba,,0
73719,35_F,TTGACAATGTTTGACAAGT,35,19,44.91854698782959,0.08223886207258603,31.578947368421048,3,0.15789473684210525,Ba_1,F,35_R,AAAGCAAGCTTAAGCACTA,19,46.69641150961264,1.8601033838556305,36.84210526315789,3,0.15789473684210525,R,S5,A0615,Ba,,0
73720,35_F,TTGACAATGTTTGACAAGT,35,19,44.91854698782959,0.08223886207258603,31.578947368421048,3,0.15789473684210525,Ba_1,F,35_R,AAAGCAAGCTTAAGCACTA,19,46.69641150961264,1.8601033838556305,36.84210526315789,3,0.15789473684210525,R,S6,A0706,Ba,,0
73721,35_F,TTGACAATGTTTGACAAGT,35,19,44.91854698782959,0.08223886207258603,31.578947368421048,3,0.15789473684210525,Ba_1,F,35_R,AAAGCAAGCTTAAGCACTA,19,46.69641150961264,1.8601033838556305,36.84210526315789,3,0.15789473684210525,R,S4,A0605,Ba,,267