,Primer_Name_L,Seq_L,Amplicon,Primer_Length_L,Tm_L,Delta Tm_L,GC_Content_L,Length_Longest_Homopolymer_L,Percent_Homopolymer_L,exp,flank_L,Primer_Name_R,Seq_R,Primer_Length_R,Tm_R,Delta Tm_R,GC_Content_R,Length_Longest_Homopolymer_R,Percent_Homopolymer_R,flank_R,sample_id,sample_name,species,strain,n_reads
75194,37_F,TCTGGTGTTAATCCTAGTTGT,37,21,48.001127208327496,1.6989454687415986,38.095238095238095,2,0.0,Ba_4,F,37_R,GTTATTCAAGCTCTGGT,17,42.47162292255632,3.830558817029569,41.17647058823529,2,0.0,R,S4,A0605,Ba,,851
75196,37_F,TCTGGTGTTAATCCTAGTTGT,37,21,48.001127208327496,1.6989454687415986,38.095238095238095,2,0.0,Ba_4,F,37_R,GTTATTCAAGCTCTGGT,17,42.47162292255632,3.830558817029569,41.17647058823529,2,0.0,R,S2,A0330,Ba,,0
75197,37_F,TCTGGTGTTAATCCTAGTTGT,37,21,48.001127208327496,1.6989454687415986,38.095238095238095,2,0.0,Ba_4,F,37_R,GTTATTCAAGCTCTGGT,17,42.47162292255632,3.830558817029569,41.17647058823529,2,0.0,R,S5,A0615,Ba,,2
75195,37_F,TCTGGTGTTAATCCTAGTTGT,37,21,48.001127208327496,1.6989454687415986,38.095238095238095,2,0.0,Ba_4,F,37_R,GTTATTCAAGCTCTGGT,17,42.47162292255632,3.830558817029569,41.17647058823529,2,0.0,R,S6,A0706,Ba,,1
74798,37_F,TTAGAAAGATCATCCATGT,37,19,42.30148217479496,2.5348259509620448,31.578947368421048,3,0.15789473684210525,Ba_1,F,37_R,AAAAACGAGTTATTCAAGC,19,43.92695321370781,0.9093549120491956,31.578947368421048,5,0.2631578947368421,R,S4,A0605,Ba,,851
76194,37_F,TCACACGCTCAATGGTCGC,37,19,55.3891954158829,3.3919651953985195,57.894736842105274,2,0.0,Yp_2,F,37_R,CTAACGATCCGAAGAGCCC,19,51.7832604913384,0.21396972914597967,57.894736842105274,3,0.15789473684210525,R,S144,BA-BaBTSeqBa007P2--xx-xxx-xxxx-021-SF,Ba,,265
76118,37_F,TCACACGCTCAATGGTCGC,37,19,55.3891954158829,3.3919651953985195,57.894736842105274,2,0.0,Yp_2,F,37_R,CTAACGATCCGAAGAGCCC,19,51.7832604913384,0.21396972914597967,57.894736842105274,3,0.15789473684210525,R,S4,A0605,Ba,,851
76119,37_F,TCACACGCTCAATGGTCGC,37,19,55.3891954158829,3.3919651953985195,57.894736842105274,2,0.0,Yp_2,F,37_R,CTAACGATCCGAAGAGCCC,19,51.7832604913384,0.21396972914597967,57.894736842105274,3,0.15789473684210525,R,S6,A0706,Ba,,1
76120,37_F,TCACACGCTCAATGGTCGC,37,19,55.3891954158829,3.3919651953985195,57.894736842105274,2,0.0,Yp_2,F,37_R,CTAACGATCCGAAGAGCCC,19,51.7832604913384,0.21396972914597967,57.894736842105274,3,0.15789473684210525,R,S2,A0330,Ba,,0
76121,37_F,TCACACGCTCAATGGTCGC,37,19,55.3891954158829,3.3919651953985195,57.894736842105274,2,0.0,Yp_2,F,37_R,CTAACGATCCGAAGAGCCC,19,51.7832604913384,0.21396972914597967,57.894736842105274,3,0.15789473684210525,R,S5,A0615,Ba,,2
74874,37_F,TTAGAAAGATCATCCATGT,37,19,42.30148217479496,2.5348259509620448,31.578947368421048,3,0.15789473684210525,Ba_1,F,37_R,AAAAACGAGTTATTCAAGC,19,43.92695321370781,0.9093549120491956,31.578947368421048,5,0.2631578947368421,R,S144,BA-BaBTSeqBa007P2--xx-xxx-xxxx-021-SF,Ba,,265
74801,37_F,TTAGAAAGATCATCCATGT,37,19,42.30148217479496,2.5348259509620448,31.578947368421048,3,0.15789473684210525,Ba_1,F,37_R,AAAAACGAGTTATTCAAGC,19,43.92695321370781,0.9093549120491956,31.578947368421048,5,0.2631578947368421,R,S5,A0615,Ba,,2
74800,37_F,TTAGAAAGATCATCCATGT,37,19,42.30148217479496,2.5348259509620448,31.578947368421048,3,0.15789473684210525,Ba_1,F,37_R,AAAAACGAGTTATTCAAGC,19,43.92695321370781,0.9093549120491956,31.578947368421048,5,0.2631578947368421,R,S2,A0330,Ba,,0
74933,37_F,TTAGAAAGATCATCCATGT,37,19,42.30148217479496,2.5348259509620448,31.578947368421048,3,0.15789473684210525,Ba_2,F,37_R,AAAAACGAGTTATTCAAGC,19,43.92695321370781,0.9093549120491956,31.578947368421048,5,0.2631578947368421,R,S5,A0615,Ba,,2
74932,37_F,TTAGAAAGATCATCCATGT,37,19,42.30148217479496,2.5348259509620448,31.578947368421048,3,0.15789473684210525,Ba_2,F,37_R,AAAAACGAGTTATTCAAGC,19,43.92695321370781,0.9093549120491956,31.578947368421048,5,0.2631578947368421,R,S2,A0330,Ba,,0
74931,37_F,TTAGAAAGATCATCCATGT,37,19,42.30148217479496,2.5348259509620448,31.578947368421048,3,0.15789473684210525,Ba_2,F,37_R,AAAAACGAGTTATTCAAGC,19,43.92695321370781,0.9093549120491956,31.578947368421048,5,0.2631578947368421,R,S6,A0706,Ba,,1
74930,37_F,TTAGAAAGATCATCCATGT,37,19,42.30148217479496,2.5348259509620448,31.578947368421048,3,0.15789473684210525,Ba_2,F,37_R,AAAAACGAGTTATTCAAGC,19,43.92695321370781,0.9093549120491956,31.578947368421048,5,0.2631578947368421,R,S4,A0605,Ba,,851
75798,37_F,TCTGGTGTTAATCCTAGTTGT,37,21,48.001127208327496,0.7860035475848761,38.095238095238095,2,0.0,Ba_V45,F,37_R,GTTATTCAAGCTCTGGT,17,42.47162292255632,4.743500738186292,41.17647058823529,2,0.0,R,S144,BA-BaBTSeqBa007P2--xx-xxx-xxxx-021-SF,Ba,,265
75854,37_F,CACACATCCAGCCAGCCA,37,18,54.18238954829837,3.0161778936142625,61.111111111111114,2,0.0,Yp_1_V2,F,37_R,TACCTAACGATCCGAAGAGC,20,50.843495187736146,0.3227164669479592,50.0,2,0.0,R,S4,A0605,Ba,,851
75855,37_F,CACACATCCAGCCAGCCA,37,18,54.18238954829837,3.0161778936142625,61.111111111111114,2,0.0,Yp_1_V2,F,37_R,TACCTAACGATCCGAAGAGC,20,50.843495187736146,0.3227164669479592,50.0,2,0.0,R,S6,A0706,Ba,,1
75856,37_F,CACACATCCAGCCAGCCA,37,18,54.18238954829837,3.0161778936142625,61.111111111111114,2,0.0,Yp_1_V2,F,37_R,TACCTAACGATCCGAAGAGC,20,50.843495187736146,0.3227164669479592,50.0,2,0.0,R,S2,A0330,Ba,,0
75857,37_F,CACACATCCAGCCAGCCA,37,18,54.18238954829837,3.0161778936142625,61.111111111111114,2,0.0,Yp_1_V2,F,37_R,TACCTAACGATCCGAAGAGC,20,50.843495187736146,0.3227164669479592,50.0,2,0.0,R,S5,A0615,Ba,,2
75722,37_F,TCTGGTGTTAATCCTAGTTGT,37,21,48.001127208327496,0.7860035475848761,38.095238095238095,2,0.0,Ba_V45,F,37_R,GTTATTCAAGCTCTGGT,17,42.47162292255632,4.743500738186292,41.17647058823529,2,0.0,R,S4,A0605,Ba,,851
75723,37_F,TCTGGTGTTAATCCTAGTTGT,37,21,48.001127208327496,0.7860035475848761,38.095238095238095,2,0.0,Ba_V45,F,37_R,GTTATTCAAGCTCTGGT,17,42.47162292255632,4.743500738186292,41.17647058823529,2,0.0,R,S6,A0706,Ba,,1
75724,37_F,TCTGGTGTTAATCCTAGTTGT,37,21,48.001127208327496,0.7860035475848761,38.095238095238095,2,0.0,Ba_V45,F,37_R,GTTATTCAAGCTCTGGT,17,42.47162292255632,4.743500738186292,41.17647058823529,2,0.0,R,S2,A0330,Ba,,0
75725,37_F,TCTGGTGTTAATCCTAGTTGT,37,21,48.001127208327496,0.7860035475848761,38.095238095238095,2,0.0,Ba_V45,F,37_R,GTTATTCAAGCTCTGGT,17,42.47162292255632,4.743500738186292,41.17647058823529,2,0.0,R,S5,A0615,Ba,,2
75986,37_F,CACACATCCAGCCAGCCA,37,18,54.18238954829837,2.75749979565569,61.111111111111114,2,0.0,Yp_1,F,37_R,TACCTAACGATCCGAAGAGC,20,50.843495187736146,0.5813945649065317,50.0,2,0.0,R,S4,A0605,Ba,,851
75987,37_F,CACACATCCAGCCAGCCA,37,18,54.18238954829837,2.75749979565569,61.111111111111114,2,0.0,Yp_1,F,37_R,TACCTAACGATCCGAAGAGC,20,50.843495187736146,0.5813945649065317,50.0,2,0.0,R,S6,A0706,Ba,,1
75988,37_F,CACACATCCAGCCAGCCA,37,18,54.18238954829837,2.75749979565569,61.111111111111114,2,0.0,Yp_1,F,37_R,TACCTAACGATCCGAAGAGC,20,50.843495187736146,0.5813945649065317,50.0,2,0.0,R,S2,A0330,Ba,,0
75989,37_F,CACACATCCAGCCAGCCA,37,18,54.18238954829837,2.75749979565569,61.111111111111114,2,0.0,Yp_1,F,37_R,TACCTAACGATCCGAAGAGC,20,50.843495187736146,0.5813945649065317,50.0,2,0.0,R,S5,A0615,Ba,,2
76062,37_F,CACACATCCAGCCAGCCA,37,18,54.18238954829837,2.75749979565569,61.111111111111114,2,0.0,Yp_1,F,37_R,TACCTAACGATCCGAAGAGC,20,50.843495187736146,0.5813945649065317,50.0,2,0.0,R,S144,BA-BaBTSeqBa007P2--xx-xxx-xxxx-021-SF,Ba,,265
75930,37_F,CACACATCCAGCCAGCCA,37,18,54.18238954829837,3.0161778936142625,61.111111111111114,2,0.0,Yp_1_V2,F,37_R,TACCTAACGATCCGAAGAGC,20,50.843495187736146,0.3227164669479592,50.0,2,0.0,R,S144,BA-BaBTSeqBa007P2--xx-xxx-xxxx-021-SF,Ba,,265
76252,38_F,CGAACCTGGTAGTAATAGG,38,19,45.88446014972613,1.0481520239691235,47.368421052631575,2,0.0,Ba_1,F,38_R,AGAGTGACTATTTAACATG,19,41.10859859015761,3.7277095355993883,31.578947368421048,3,0.15789473684210525,R,S5,A0615,Ba,,0
77470,38_F,ATACCGAGGCCTAACACCACCA,38,22,57.101039118115075,5.103808897630678,54.54545454545454,2,0.0,Yp_2,F,38_R,GGTTCATGGTTGCTGATGTTCTTG,24,54.996761768478954,2.999531547994572,45.83333333333333,2,0.0,R,S2,A0330,Ba,,0
77471,38_F,ATACCGAGGCCTAACACCACCA,38,22,57.101039118115075,5.103808897630678,54.54545454545454,2,0.0,Yp_2,F,38_R,GGTTCATGGTTGCTGATGTTCTTG,24,54.996761768478954,2.999531547994572,45.83333333333333,2,0.0,R,S6,A0706,Ba,,0
77472,38_F,ATACCGAGGCCTAACACCACCA,38,22,57.101039118115075,5.103808897630678,54.54545454545454,2,0.0,Yp_2,F,38_R,GGTTCATGGTTGCTGATGTTCTTG,24,54.996761768478954,2.999531547994572,45.83333333333333,2,0.0,R,S5,A0615,Ba,,0
77473,38_F,ATACCGAGGCCTAACACCACCA,38,22,57.101039118115075,5.103808897630678,54.54545454545454,2,0.0,Yp_2,F,38_R,GGTTCATGGTTGCTGATGTTCTTG,24,54.996761768478954,2.999531547994572,45.83333333333333,2,0.0,R,S4,A0605,Ba,,30
77348,38_F,TGCAATACCGAGGCCTAA,38,18,49.75199657889823,1.6728931737444557,50.0,2,0.0,Yp_1,F,38_R,ATAGGTTCGATGCTGGTCTCGC,22,56.63732911034464,5.212439357701953,54.54545454545454,2,0.0,R,S2,A0330,Ba,,0
77349,38_F,TGCAATACCGAGGCCTAA,38,18,49.75199657889823,1.6728931737444557,50.0,2,0.0,Yp_1,F,38_R,ATAGGTTCGATGCTGGTCTCGC,22,56.63732911034464,5.212439357701953,54.54545454545454,2,0.0,R,S6,A0706,Ba,,0
77350,38_F,TGCAATACCGAGGCCTAA,38,18,49.75199657889823,1.6728931737444557,50.0,2,0.0,Yp_1,F,38_R,ATAGGTTCGATGCTGGTCTCGC,22,56.63732911034464,5.212439357701953,54.54545454545454,2,0.0,R,S5,A0615,Ba,,0
77351,38_F,TGCAATACCGAGGCCTAA,38,18,49.75199657889823,1.6728931737444557,50.0,2,0.0,Yp_1,F,38_R,ATAGGTTCGATGCTGGTCTCGC,22,56.63732911034464,5.212439357701953,54.54545454545454,2,0.0,R,S4,A0605,Ba,,30
77414,38_F,TGCAATACCGAGGCCTAA,38,18,49.75199657889823,1.6728931737444557,50.0,2,0.0,Yp_1,F,38_R,ATAGGTTCGATGCTGGTCTCGC,22,56.63732911034464,5.212439357701953,54.54545454545454,2,0.0,R,S144,BA-BaBTSeqBa007P2--xx-xxx-xxxx-021-SF,Ba,,159
76860,38_F,AATTGGCTGAAGGGTTA,38,17,44.03723012720798,2.2649516123779136,41.17647058823529,3,0.17647058823529413,Ba_5_V3,F,38_R,AATCCTACTGCAAGCTCTCGA,21,53.020351532302364,6.718169792716466,47.61904761904761,2,0.0,R,S2,A0330,Ba,,0
76861,38_F,AATTGGCTGAAGGGTTA,38,17,44.03723012720798,2.2649516123779136,41.17647058823529,3,0.17647058823529413,Ba_5_V3,F,38_R,AATCCTACTGCAAGCTCTCGA,21,53.020351532302364,6.718169792716466,47.61904761904761,2,0.0,R,S6,A0706,Ba,,0
76804,38_F,AATTGGCTGAAGGGTTA,38,17,44.03723012720798,2.4352873199052354,41.17647058823529,3,0.17647058823529413,Ba_5_V35,F,38_R,AATCCTACTGCAAGCTCTCGA,21,53.020351532302364,6.547834085189145,47.61904761904761,2,0.0,R,S144,BA-BaBTSeqBa007P2--xx-xxx-xxxx-021-SF,Ba,,159
76862,38_F,AATTGGCTGAAGGGTTA,38,17,44.03723012720798,2.2649516123779136,41.17647058823529,3,0.17647058823529413,Ba_5_V3,F,38_R,AATCCTACTGCAAGCTCTCGA,21,53.020351532302364,6.718169792716466,47.61904761904761,2,0.0,R,S5,A0615,Ba,,0
77536,38_F,ATACCGAGGCCTAACACCACCA,38,22,57.101039118115075,5.103808897630678,54.54545454545454,2,0.0,Yp_2,F,38_R,GGTTCATGGTTGCTGATGTTCTTG,24,54.996761768478954,2.999531547994572,45.83333333333333,2,0.0,R,S144,BA-BaBTSeqBa007P2--xx-xxx-xxxx-021-SF,Ba,,159
76863,38_F,AATTGGCTGAAGGGTTA,38,17,44.03723012720798,2.2649516123779136,41.17647058823529,3,0.17647058823529413,Ba_5_V3,F,38_R,AATCCTACTGCAAGCTCTCGA,21,53.020351532302364,6.718169792716466,47.61904761904761,2,0.0,R,S4,A0605,Ba,,30
77048,38_F,GGTAGTAATAGGGGAAGGG,38,19,47.066701571682025,0.17636205383359282,52.631578947368425,4,0.3684210526315789,Ba_6_V4,F,38_R,TCGGTTTCACCGACTTGTGG,20,54.783727087763566,7.540663462247956,55.00000000000001,3,0.15,R,S144,BA-BaBTSeqBa007P2--xx-xxx-xxxx-021-SF,Ba,,159
77104,38_F,GGTAGTAATAGGGGAAGGG,38,19,47.066701571682025,0.1484220890605954,52.631578947368425,4,0.3684210526315789,Ba_V45,F,38_R,TCGGTTTCACCGACTTGTGG,20,54.783727087763566,7.568603427020952,55.00000000000001,3,0.15,R,S2,A0330,Ba,,0
77105,38_F,GGTAGTAATAGGGGAAGGG,38,19,47.066701571682025,0.1484220890605954,52.631578947368425,4,0.3684210526315789,Ba_V45,F,38_R,TCGGTTTCACCGACTTGTGG,20,54.783727087763566,7.568603427020952,55.00000000000001,3,0.15,R,S6,A0706,Ba,,0
77106,38_F,GGTAGTAATAGGGGAAGGG,38,19,47.066701571682025,0.1484220890605954,52.631578947368425,4,0.3684210526315789,Ba_V45,F,38_R,TCGGTTTCACCGACTTGTGG,20,54.783727087763566,7.568603427020952,55.00000000000001,3,0.15,R,S5,A0615,Ba,,0
77107,38_F,GGTAGTAATAGGGGAAGGG,38,19,47.066701571682025,0.1484220890605954,52.631578947368425,4,0.3684210526315789,Ba_V45,F,38_R,TCGGTTTCACCGACTTGTGG,20,54.783727087763566,7.568603427020952,55.00000000000001,3,0.15,R,S4,A0605,Ba,,30
76926,38_F,AATTGGCTGAAGGGTTA,38,17,44.03723012720798,2.2649516123779136,41.17647058823529,3,0.17647058823529413,Ba_5_V3,F,38_R,AATCCTACTGCAAGCTCTCGA,21,53.020351532302364,6.718169792716466,47.61904761904761,2,0.0,R,S144,BA-BaBTSeqBa007P2--xx-xxx-xxxx-021-SF,Ba,,159
76982,38_F,GGTAGTAATAGGGGAAGGG,38,19,47.066701571682025,0.17636205383359282,52.631578947368425,4,0.3684210526315789,Ba_6_V4,F,38_R,TCGGTTTCACCGACTTGTGG,20,54.783727087763566,7.540663462247956,55.00000000000001,3,0.15,R,S2,A0330,Ba,,0
76983,38_F,GGTAGTAATAGGGGAAGGG,38,19,47.066701571682025,0.17636205383359282,52.631578947368425,4,0.3684210526315789,Ba_6_V4,F,38_R,TCGGTTTCACCGACTTGTGG,20,54.783727087763566,7.540663462247956,55.00000000000001,3,0.15,R,S6,A0706,Ba,,0
76984,38_F,GGTAGTAATAGGGGAAGGG,38,19,47.066701571682025,0.17636205383359282,52.631578947368425,4,0.3684210526315789,Ba_6_V4,F,38_R,TCGGTTTCACCGACTTGTGG,20,54.783727087763566,7.540663462247956,55.00000000000001,3,0.15,R,S5,A0615,Ba,,0
76985,38_F,GGTAGTAATAGGGGAAGGG,38,19,47.066701571682025,0.17636205383359282,52.631578947368425,4,0.3684210526315789,Ba_6_V4,F,38_R,TCGGTTTCACCGACTTGTGG,20,54.783727087763566,7.540663462247956,55.00000000000001,3,0.15,R,S4,A0605,Ba,,30
77227,38_F,TGCAATACCGAGGCCTAA,38,18,49.75199657889823,1.4142150757858831,50.0,2,0.0,Yp_1_V2,F,38_R,ATAGGTTCGATGCTGGTCTCGC,22,56.63732911034464,5.471117455660527,54.54545454545454,2,0.0,R,S6,A0706,Ba,,0
77228,38_F,TGCAATACCGAGGCCTAA,38,18,49.75199657889823,1.4142150757858831,50.0,2,0.0,Yp_1_V2,F,38_R,ATAGGTTCGATGCTGGTCTCGC,22,56.63732911034464,5.471117455660527,54.54545454545454,2,0.0,R,S5,A0615,Ba,,0
77229,38_F,TGCAATACCGAGGCCTAA,38,18,49.75199657889823,1.4142150757858831,50.0,2,0.0,Yp_1_V2,F,38_R,ATAGGTTCGATGCTGGTCTCGC,22,56.63732911034464,5.471117455660527,54.54545454545454,2,0.0,R,S4,A0605,Ba,,30
77226,38_F,TGCAATACCGAGGCCTAA,38,18,49.75199657889823,1.4142150757858831,50.0,2,0.0,Yp_1_V2,F,38_R,ATAGGTTCGATGCTGGTCTCGC,22,56.63732911034464,5.471117455660527,54.54545454545454,2,0.0,R,S2,A0330,Ba,,0
77292,38_F,TGCAATACCGAGGCCTAA,38,18,49.75199657889823,1.4142150757858831,50.0,2,0.0,Yp_1_V2,F,38_R,ATAGGTTCGATGCTGGTCTCGC,22,56.63732911034464,5.471117455660527,54.54545454545454,2,0.0,R,S144,BA-BaBTSeqBa007P2--xx-xxx-xxxx-021-SF,Ba,,159
77170,38_F,GGTAGTAATAGGGGAAGGG,38,19,47.066701571682025,0.1484220890605954,52.631578947368425,4,0.3684210526315789,Ba_V45,F,38_R,TCGGTTTCACCGACTTGTGG,20,54.783727087763566,7.568603427020952,55.00000000000001,3,0.15,R,S144,BA-BaBTSeqBa007P2--xx-xxx-xxxx-021-SF,Ba,,159
76438,38_F,CGAACCTGGTAGTAATAGG,38,19,45.88446014972613,1.0481520239691235,47.368421052631575,2,0.0,Ba_2,F,38_R,AGAGTGACTATTTAACATG,19,41.10859859015761,3.7277095355993883,31.578947368421048,3,0.15789473684210525,R,S144,BA-BaBTSeqBa007P2--xx-xxx-xxxx-021-SF,Ba,,159
76494,38_F,CGAACCTGGTAGTAATAGG,38,19,45.88446014972613,1.0481520239691235,47.368421052631575,2,0.0,Ba_3,F,38_R,AGAGTGACTATTTAACATG,19,41.10859859015761,3.7277095355993883,31.578947368421048,3,0.15789473684210525,R,S2,A0330,Ba,,0
76495,38_F,CGAACCTGGTAGTAATAGG,38,19,45.88446014972613,1.0481520239691235,47.368421052631575,2,0.0,Ba_3,F,38_R,AGAGTGACTATTTAACATG,19,41.10859859015761,3.7277095355993883,31.578947368421048,3,0.15789473684210525,R,S6,A0706,Ba,,0
76496,38_F,CGAACCTGGTAGTAATAGG,38,19,45.88446014972613,1.0481520239691235,47.368421052631575,2,0.0,Ba_3,F,38_R,AGAGTGACTATTTAACATG,19,41.10859859015761,3.7277095355993883,31.578947368421048,3,0.15789473684210525,R,S5,A0615,Ba,,0
76497,38_F,CGAACCTGGTAGTAATAGG,38,19,45.88446014972613,1.0481520239691235,47.368421052631575,2,0.0,Ba_3,F,38_R,AGAGTGACTATTTAACATG,19,41.10859859015761,3.7277095355993883,31.578947368421048,3,0.15789473684210525,R,S4,A0605,Ba,,30
76375,38_F,CGAACCTGGTAGTAATAGG,38,19,45.88446014972613,1.0481520239691235,47.368421052631575,2,0.0,Ba_2,F,38_R,AGAGTGACTATTTAACATG,19,41.10859859015761,3.7277095355993883,31.578947368421048,3,0.15789473684210525,R,S4,A0605,Ba,,30
76250,38_F,CGAACCTGGTAGTAATAGG,38,19,45.88446014972613,1.0481520239691235,47.368421052631575,2,0.0,Ba_1,F,38_R,AGAGTGACTATTTAACATG,19,41.10859859015761,3.7277095355993883,31.578947368421048,3,0.15789473684210525,R,S2,A0330,Ba,,0
76251,38_F,CGAACCTGGTAGTAATAGG,38,19,45.88446014972613,1.0481520239691235,47.368421052631575,2,0.0,Ba_1,F,38_R,AGAGTGACTATTTAACATG,19,41.10859859015761,3.7277095355993883,31.578947368421048,3,0.15789473684210525,R,S6,A0706,Ba,,0
76253,38_F,CGAACCTGGTAGTAATAGG,38,19,45.88446014972613,1.0481520239691235,47.368421052631575,2,0.0,Ba_1,F,38_R,AGAGTGACTATTTAACATG,19,41.10859859015761,3.7277095355993883,31.578947368421048,3,0.15789473684210525,R,S4,A0605,Ba,,30
76372,38_F,CGAACCTGGTAGTAATAGG,38,19,45.88446014972613,1.0481520239691235,47.368421052631575,2,0.0,Ba_2,F,38_R,AGAGTGACTATTTAACATG,19,41.10859859015761,3.7277095355993883,31.578947368421048,3,0.15789473684210525,R,S2,A0330,Ba,,0
76373,38_F,CGAACCTGGTAGTAATAGG,38,19,45.88446014972613,1.0481520239691235,47.368421052631575,2,0.0,Ba_2,F,38_R,AGAGTGACTATTTAACATG,19,41.10859859015761,3.7277095355993883,31.578947368421048,3,0.15789473684210525,R,S6,A0706,Ba,,0
76374,38_F,CGAACCTGGTAGTAATAGG,38,19,45.88446014972613,1.0481520239691235,47.368421052631575,2,0.0,Ba_2,F,38_R,AGAGTGACTATTTAACATG,19,41.10859859015761,3.7277095355993883,31.578947368421048,3,0.15789473684210525,R,S5,A0615,Ba,,0
76316,38_F,CGAACCTGGTAGTAATAGG,38,19,45.88446014972613,1.0481520239691235,47.368421052631575,2,0.0,Ba_1,F,38_R,AGAGTGACTATTTAACATG,19,41.10859859015761,3.7277095355993883,31.578947368421048,3,0.15789473684210525,R,S144,BA-BaBTSeqBa007P2--xx-xxx-xxxx-021-SF,Ba,,159
76682,38_F,AATTGGCTGAAGGGTTA,38,17,44.03723012720798,2.2649516123779136,41.17647058823529,3,0.17647058823529413,Ba_4,F,38_R,AATCCTACTGCAAGCTCTCGA,21,53.020351532302364,6.718169792716466,47.61904761904761,2,0.0,R,S144,BA-BaBTSeqBa007P2--xx-xxx-xxxx-021-SF,Ba,,159
76738,38_F,AATTGGCTGAAGGGTTA,38,17,44.03723012720798,2.4352873199052354,41.17647058823529,3,0.17647058823529413,Ba_5_V35,F,38_R,AATCCTACTGCAAGCTCTCGA,21,53.020351532302364,6.547834085189145,47.61904761904761,2,0.0,R,S2,A0330,Ba,,0
76739,38_F,AATTGGCTGAAGGGTTA,38,17,44.03723012720798,2.4352873199052354,41.17647058823529,3,0.17647058823529413,Ba_5_V35,F,38_R,AATCCTACTGCAAGCTCTCGA,21,53.020351532302364,6.547834085189145,47.61904761904761,2,0.0,R,S6,A0706,Ba,,0
76740,38_F,AATTGGCTGAAGGGTTA,38,17,44.03723012720798,2.4352873199052354,41.17647058823529,3,0.17647058823529413,Ba_5_V35,F,38_R,AATCCTACTGCAAGCTCTCGA,21,53.020351532302364,6.547834085189145,47.61904761904761,2,0.0,R,S5,A0615,Ba,,0
76741,38_F,AATTGGCTGAAGGGTTA,38,17,44.03723012720798,2.4352873199052354,41.17647058823529,3,0.17647058823529413,Ba_5_V35,F,38_R,AATCCTACTGCAAGCTCTCGA,21,53.020351532302364,6.547834085189145,47.61904761904761,2,0.0,R,S4,A0605,Ba,,30
76560,38_F,CGAACCTGGTAGTAATAGG,38,19,45.88446014972613,1.0481520239691235,47.368421052631575,2,0.0,Ba_3,F,38_R,AGAGTGACTATTTAACATG,19,41.10859859015761,3.7277095355993883,31.578947368421048,3,0.15789473684210525,R,S144,BA-BaBTSeqBa007P2--xx-xxx-xxxx-021-SF,Ba,,159
76618,38_F,AATTGGCTGAAGGGTTA,38,17,44.03723012720798,2.2649516123779136,41.17647058823529,3,0.17647058823529413,Ba_4,F,38_R,AATCCTACTGCAAGCTCTCGA,21,53.020351532302364,6.718169792716466,47.61904761904761,2,0.0,R,S5,A0615,Ba,,0
76619,38_F,AATTGGCTGAAGGGTTA,38,17,44.03723012720798,2.2649516123779136,41.17647058823529,3,0.17647058823529413,Ba_4,F,38_R,AATCCTACTGCAAGCTCTCGA,21,53.020351532302364,6.718169792716466,47.61904761904761,2,0.0,R,S4,A0605,Ba,,30
76616,38_F,AATTGGCTGAAGGGTTA,38,17,44.03723012720798,2.2649516123779136,41.17647058823529,3,0.17647058823529413,Ba_4,F,38_R,AATCCTACTGCAAGCTCTCGA,21,53.020351532302364,6.718169792716466,47.61904761904761,2,0.0,R,S2,A0330,Ba,,0