,Primer_Name_L,Seq_L,Amplicon,Primer_Length_L,Tm_L,Delta Tm_L,GC_Content_L,Length_Longest_Homopolymer_L,Percent_Homopolymer_L,exp,flank_L,Primer_Name_R,Seq_R,Primer_Length_R,Tm_R,Delta Tm_R,GC_Content_R,Length_Longest_Homopolymer_R,Percent_Homopolymer_R,flank_R,sample_id,sample_name,species,strain,n_reads
76617,38_F,AATTGGCTGAAGGGTTA,38,17,44.03723012720798,2.2649516123779136,41.17647058823529,3,0.17647058823529413,Ba_4,F,38_R,AATCCTACTGCAAGCTCTCGA,21,53.020351532302364,6.718169792716466,47.61904761904761,2,0.0,R,S6,A0706,Ba,,0
91319,39_F,TTAACAGCTACTACCGTACAG,39,21,48.83180864632169,3.1654215741627003,42.857142857142854,2,0.0,Yp_2,F,39_R,GGATGGCTACTGTCGGTCAGGCT,23,60.05305475685822,8.055824536373828,60.86956521739131,2,0.0,R,S4,A0605,Ba,,1768
91318,39_F,TTAACAGCTACTACCGTACAG,39,21,48.83180864632169,3.1654215741627003,42.857142857142854,2,0.0,Yp_2,F,39_R,GGATGGCTACTGTCGGTCAGGCT,23,60.05305475685822,8.055824536373828,60.86956521739131,2,0.0,R,S2,A0330,Ba,,1
91317,39_F,TTAACAGCTACTACCGTACAG,39,21,48.83180864632169,3.1654215741627003,42.857142857142854,2,0.0,Yp_2,F,39_R,GGATGGCTACTGTCGGTCAGGCT,23,60.05305475685822,8.055824536373828,60.86956521739131,2,0.0,R,S5,A0615,Ba,,2
91316,39_F,TTAACAGCTACTACCGTACAG,39,21,48.83180864632169,3.1654215741627003,42.857142857142854,2,0.0,Yp_2,F,39_R,GGATGGCTACTGTCGGTCAGGCT,23,60.05305475685822,8.055824536373828,60.86956521739131,2,0.0,R,S6,A0706,Ba,,0
91389,39_F,TTAACAGCTACTACCGTACAG,39,21,48.83180864632169,3.1654215741627003,42.857142857142854,2,0.0,Yp_2,F,39_R,GGATGGCTACTGTCGGTCAGGCT,23,60.05305475685822,8.055824536373828,60.86956521739131,2,0.0,R,S144,BA-BaBTSeqBa007P2--xx-xxx-xxxx-021-SF,Ba,,25
90209,39_F,TAATTCCGAAAGCATGTAAG,39,20,45.611320684046966,0.7750125582899727,35.0,3,0.15,Ba_1,F,39_R,TGGTCTACTTGCAGTTATTATT,22,47.02461759897994,2.1883094732229442,31.818181818181817,2,0.0,R,S144,BA-BaBTSeqBa007P2--xx-xxx-xxxx-021-SF,Ba,,25
90139,39_F,TAATTCCGAAAGCATGTAAG,39,20,45.611320684046966,0.7750125582899727,35.0,3,0.15,Ba_1,F,39_R,TGGTCTACTTGCAGTTATTATT,22,47.02461759897994,2.1883094732229442,31.818181818181817,2,0.0,R,S4,A0605,Ba,,1768
90138,39_F,TAATTCCGAAAGCATGTAAG,39,20,45.611320684046966,0.7750125582899727,35.0,3,0.15,Ba_1,F,39_R,TGGTCTACTTGCAGTTATTATT,22,47.02461759897994,2.1883094732229442,31.818181818181817,2,0.0,R,S2,A0330,Ba,,1
90137,39_F,TAATTCCGAAAGCATGTAAG,39,20,45.611320684046966,0.7750125582899727,35.0,3,0.15,Ba_1,F,39_R,TGGTCTACTTGCAGTTATTATT,22,47.02461759897994,2.1883094732229442,31.818181818181817,2,0.0,R,S5,A0615,Ba,,2
90136,39_F,TAATTCCGAAAGCATGTAAG,39,20,45.611320684046966,0.7750125582899727,35.0,3,0.15,Ba_1,F,39_R,TGGTCTACTTGCAGTTATTATT,22,47.02461759897994,2.1883094732229442,31.818181818181817,2,0.0,R,S6,A0706,Ba,,0
91271,39_F,GTTGGCTGATGATGTTGAAGTTA,39,23,51.530129663839425,0.10523991119674747,39.130434782608695,2,0.0,Yp_1,F,39_R,AGGCTGATGGTTGCCAGTAC,20,54.16962786710428,2.744738114461597,55.00000000000001,2,0.0,R,S144,BA-BaBTSeqBa007P2--xx-xxx-xxxx-021-SF,Ba,,25
91201,39_F,GTTGGCTGATGATGTTGAAGTTA,39,23,51.530129663839425,0.10523991119674747,39.130434782608695,2,0.0,Yp_1,F,39_R,AGGCTGATGGTTGCCAGTAC,20,54.16962786710428,2.744738114461597,55.00000000000001,2,0.0,R,S4,A0605,Ba,,1768
91200,39_F,GTTGGCTGATGATGTTGAAGTTA,39,23,51.530129663839425,0.10523991119674747,39.130434782608695,2,0.0,Yp_1,F,39_R,AGGCTGATGGTTGCCAGTAC,20,54.16962786710428,2.744738114461597,55.00000000000001,2,0.0,R,S2,A0330,Ba,,1
91198,39_F,GTTGGCTGATGATGTTGAAGTTA,39,23,51.530129663839425,0.10523991119674747,39.130434782608695,2,0.0,Yp_1,F,39_R,AGGCTGATGGTTGCCAGTAC,20,54.16962786710428,2.744738114461597,55.00000000000001,2,0.0,R,S6,A0706,Ba,,0
91199,39_F,GTTGGCTGATGATGTTGAAGTTA,39,23,51.530129663839425,0.10523991119674747,39.130434782608695,2,0.0,Yp_1,F,39_R,AGGCTGATGGTTGCCAGTAC,20,54.16962786710428,2.744738114461597,55.00000000000001,2,0.0,R,S5,A0615,Ba,,2
90844,39_F,TTTAACTGGGTGCGTTACGTTT,39,22,53.24223321162685,5.999169586111242,40.90909090909091,3,0.4090909090909091,Ba_6_V4,F,39_R,TGGTCTACTTGCAGTTATTATT,22,47.02461759897994,0.21844602653566625,31.818181818181817,2,0.0,R,S6,A0706,Ba,,0
90845,39_F,TTTAACTGGGTGCGTTACGTTT,39,22,53.24223321162685,5.999169586111242,40.90909090909091,3,0.4090909090909091,Ba_6_V4,F,39_R,TGGTCTACTTGCAGTTATTATT,22,47.02461759897994,0.21844602653566625,31.818181818181817,2,0.0,R,S5,A0615,Ba,,2
90846,39_F,TTTAACTGGGTGCGTTACGTTT,39,22,53.24223321162685,5.999169586111242,40.90909090909091,3,0.4090909090909091,Ba_6_V4,F,39_R,TGGTCTACTTGCAGTTATTATT,22,47.02461759897994,0.21844602653566625,31.818181818181817,2,0.0,R,S2,A0330,Ba,,1
90847,39_F,TTTAACTGGGTGCGTTACGTTT,39,22,53.24223321162685,5.999169586111242,40.90909090909091,3,0.4090909090909091,Ba_6_V4,F,39_R,TGGTCTACTTGCAGTTATTATT,22,47.02461759897994,0.21844602653566625,31.818181818181817,2,0.0,R,S4,A0605,Ba,,1768
90917,39_F,TTTAACTGGGTGCGTTACGTTT,39,22,53.24223321162685,5.999169586111242,40.90909090909091,3,0.4090909090909091,Ba_6_V4,F,39_R,TGGTCTACTTGCAGTTATTATT,22,47.02461759897994,0.21844602653566625,31.818181818181817,2,0.0,R,S144,BA-BaBTSeqBa007P2--xx-xxx-xxxx-021-SF,Ba,,25
90729,39_F,TAATTCCGAAAGCATGTAAG,39,20,45.611320684046966,0.6908610555389174,35.0,3,0.15,Ba_5_V3,F,39_R,TGGTCTACTTGCAGTTATTATT,22,47.02461759897994,0.7224358593940536,31.818181818181817,2,0.0,R,S4,A0605,Ba,,1768
90728,39_F,TAATTCCGAAAGCATGTAAG,39,20,45.611320684046966,0.6908610555389174,35.0,3,0.15,Ba_5_V3,F,39_R,TGGTCTACTTGCAGTTATTATT,22,47.02461759897994,0.7224358593940536,31.818181818181817,2,0.0,R,S2,A0330,Ba,,1
90727,39_F,TAATTCCGAAAGCATGTAAG,39,20,45.611320684046966,0.6908610555389174,35.0,3,0.15,Ba_5_V3,F,39_R,TGGTCTACTTGCAGTTATTATT,22,47.02461759897994,0.7224358593940536,31.818181818181817,2,0.0,R,S5,A0615,Ba,,2
90726,39_F,TAATTCCGAAAGCATGTAAG,39,20,45.611320684046966,0.6908610555389174,35.0,3,0.15,Ba_5_V3,F,39_R,TGGTCTACTTGCAGTTATTATT,22,47.02461759897994,0.7224358593940536,31.818181818181817,2,0.0,R,S6,A0706,Ba,,0
90799,39_F,TAATTCCGAAAGCATGTAAG,39,20,45.611320684046966,0.6908610555389174,35.0,3,0.15,Ba_5_V3,F,39_R,TGGTCTACTTGCAGTTATTATT,22,47.02461759897994,0.7224358593940536,31.818181818181817,2,0.0,R,S144,BA-BaBTSeqBa007P2--xx-xxx-xxxx-021-SF,Ba,,25
91083,39_F,GTTGGCTGATGATGTTGAAGTTA,39,23,51.530129663839425,0.36391800915532,39.130434782608695,2,0.0,Yp_1_V2,F,39_R,AGGCTGATGGTTGCCAGTAC,20,54.16962786710428,3.0034162124201695,55.00000000000001,2,0.0,R,S4,A0605,Ba,,1768
91082,39_F,GTTGGCTGATGATGTTGAAGTTA,39,23,51.530129663839425,0.36391800915532,39.130434782608695,2,0.0,Yp_1_V2,F,39_R,AGGCTGATGGTTGCCAGTAC,20,54.16962786710428,3.0034162124201695,55.00000000000001,2,0.0,R,S2,A0330,Ba,,1
91081,39_F,GTTGGCTGATGATGTTGAAGTTA,39,23,51.530129663839425,0.36391800915532,39.130434782608695,2,0.0,Yp_1_V2,F,39_R,AGGCTGATGGTTGCCAGTAC,20,54.16962786710428,3.0034162124201695,55.00000000000001,2,0.0,R,S5,A0615,Ba,,2
91080,39_F,GTTGGCTGATGATGTTGAAGTTA,39,23,51.530129663839425,0.36391800915532,39.130434782608695,2,0.0,Yp_1_V2,F,39_R,AGGCTGATGGTTGCCAGTAC,20,54.16962786710428,3.0034162124201695,55.00000000000001,2,0.0,R,S6,A0706,Ba,,0
91035,39_F,TTTAACTGGGTGCGTTACGTTT,39,22,53.24223321162685,6.027109550884241,40.90909090909091,3,0.4090909090909091,Ba_V45,F,39_R,TGGTCTACTTGCAGTTATTATT,22,47.02461759897994,0.1905060617626688,31.818181818181817,2,0.0,R,S144,BA-BaBTSeqBa007P2--xx-xxx-xxxx-021-SF,Ba,,25
90962,39_F,TTTAACTGGGTGCGTTACGTTT,39,22,53.24223321162685,6.027109550884241,40.90909090909091,3,0.4090909090909091,Ba_V45,F,39_R,TGGTCTACTTGCAGTTATTATT,22,47.02461759897994,0.1905060617626688,31.818181818181817,2,0.0,R,S6,A0706,Ba,,0
90963,39_F,TTTAACTGGGTGCGTTACGTTT,39,22,53.24223321162685,6.027109550884241,40.90909090909091,3,0.4090909090909091,Ba_V45,F,39_R,TGGTCTACTTGCAGTTATTATT,22,47.02461759897994,0.1905060617626688,31.818181818181817,2,0.0,R,S5,A0615,Ba,,2
90964,39_F,TTTAACTGGGTGCGTTACGTTT,39,22,53.24223321162685,6.027109550884241,40.90909090909091,3,0.4090909090909091,Ba_V45,F,39_R,TGGTCTACTTGCAGTTATTATT,22,47.02461759897994,0.1905060617626688,31.818181818181817,2,0.0,R,S2,A0330,Ba,,1
90965,39_F,TTTAACTGGGTGCGTTACGTTT,39,22,53.24223321162685,6.027109550884241,40.90909090909091,3,0.4090909090909091,Ba_V45,F,39_R,TGGTCTACTTGCAGTTATTATT,22,47.02461759897994,0.1905060617626688,31.818181818181817,2,0.0,R,S4,A0605,Ba,,1768
91153,39_F,GTTGGCTGATGATGTTGAAGTTA,39,23,51.530129663839425,0.36391800915532,39.130434782608695,2,0.0,Yp_1_V2,F,39_R,AGGCTGATGGTTGCCAGTAC,20,54.16962786710428,3.0034162124201695,55.00000000000001,2,0.0,R,S144,BA-BaBTSeqBa007P2--xx-xxx-xxxx-021-SF,Ba,,25
90372,39_F,TAATTCCGAAAGCATGTAAG,39,20,45.611320684046966,0.7750125582899727,35.0,3,0.15,Ba_3,F,39_R,TGGTCTACTTGCAGTTATTATT,22,47.02461759897994,2.1883094732229442,31.818181818181817,2,0.0,R,S6,A0706,Ba,,0
90373,39_F,TAATTCCGAAAGCATGTAAG,39,20,45.611320684046966,0.7750125582899727,35.0,3,0.15,Ba_3,F,39_R,TGGTCTACTTGCAGTTATTATT,22,47.02461759897994,2.1883094732229442,31.818181818181817,2,0.0,R,S5,A0615,Ba,,2
90374,39_F,TAATTCCGAAAGCATGTAAG,39,20,45.611320684046966,0.7750125582899727,35.0,3,0.15,Ba_3,F,39_R,TGGTCTACTTGCAGTTATTATT,22,47.02461759897994,2.1883094732229442,31.818181818181817,2,0.0,R,S2,A0330,Ba,,1
90375,39_F,TAATTCCGAAAGCATGTAAG,39,20,45.611320684046966,0.7750125582899727,35.0,3,0.15,Ba_3,F,39_R,TGGTCTACTTGCAGTTATTATT,22,47.02461759897994,2.1883094732229442,31.818181818181817,2,0.0,R,S4,A0605,Ba,,1768
90445,39_F,TAATTCCGAAAGCATGTAAG,39,20,45.611320684046966,0.7750125582899727,35.0,3,0.15,Ba_3,F,39_R,TGGTCTACTTGCAGTTATTATT,22,47.02461759897994,2.1883094732229442,31.818181818181817,2,0.0,R,S144,BA-BaBTSeqBa007P2--xx-xxx-xxxx-021-SF,Ba,,25
90254,39_F,TAATTCCGAAAGCATGTAAG,39,20,45.611320684046966,0.7750125582899727,35.0,3,0.15,Ba_2,F,39_R,TGGTCTACTTGCAGTTATTATT,22,47.02461759897994,2.1883094732229442,31.818181818181817,2,0.0,R,S6,A0706,Ba,,0
90255,39_F,TAATTCCGAAAGCATGTAAG,39,20,45.611320684046966,0.7750125582899727,35.0,3,0.15,Ba_2,F,39_R,TGGTCTACTTGCAGTTATTATT,22,47.02461759897994,2.1883094732229442,31.818181818181817,2,0.0,R,S5,A0615,Ba,,2
90256,39_F,TAATTCCGAAAGCATGTAAG,39,20,45.611320684046966,0.7750125582899727,35.0,3,0.15,Ba_2,F,39_R,TGGTCTACTTGCAGTTATTATT,22,47.02461759897994,2.1883094732229442,31.818181818181817,2,0.0,R,S2,A0330,Ba,,1
90257,39_F,TAATTCCGAAAGCATGTAAG,39,20,45.611320684046966,0.7750125582899727,35.0,3,0.15,Ba_2,F,39_R,TGGTCTACTTGCAGTTATTATT,22,47.02461759897994,2.1883094732229442,31.818181818181817,2,0.0,R,S4,A0605,Ba,,1768
90327,39_F,TAATTCCGAAAGCATGTAAG,39,20,45.611320684046966,0.7750125582899727,35.0,3,0.15,Ba_2,F,39_R,TGGTCTACTTGCAGTTATTATT,22,47.02461759897994,2.1883094732229442,31.818181818181817,2,0.0,R,S144,BA-BaBTSeqBa007P2--xx-xxx-xxxx-021-SF,Ba,,25
90609,39_F,TAATTCCGAAAGCATGTAAG,39,20,45.611320684046966,0.8611967630662392,35.0,3,0.15,Ba_5_V35,F,39_R,TGGTCTACTTGCAGTTATTATT,22,47.02461759897994,0.5521001518667319,31.818181818181817,2,0.0,R,S5,A0615,Ba,,2
90610,39_F,TAATTCCGAAAGCATGTAAG,39,20,45.611320684046966,0.8611967630662392,35.0,3,0.15,Ba_5_V35,F,39_R,TGGTCTACTTGCAGTTATTATT,22,47.02461759897994,0.5521001518667319,31.818181818181817,2,0.0,R,S2,A0330,Ba,,1
90611,39_F,TAATTCCGAAAGCATGTAAG,39,20,45.611320684046966,0.8611967630662392,35.0,3,0.15,Ba_5_V35,F,39_R,TGGTCTACTTGCAGTTATTATT,22,47.02461759897994,0.5521001518667319,31.818181818181817,2,0.0,R,S4,A0605,Ba,,1768
90608,39_F,TAATTCCGAAAGCATGTAAG,39,20,45.611320684046966,0.8611967630662392,35.0,3,0.15,Ba_5_V35,F,39_R,TGGTCTACTTGCAGTTATTATT,22,47.02461759897994,0.5521001518667319,31.818181818181817,2,0.0,R,S6,A0706,Ba,,0
90681,39_F,TAATTCCGAAAGCATGTAAG,39,20,45.611320684046966,0.8611967630662392,35.0,3,0.15,Ba_5_V35,F,39_R,TGGTCTACTTGCAGTTATTATT,22,47.02461759897994,0.5521001518667319,31.818181818181817,2,0.0,R,S144,BA-BaBTSeqBa007P2--xx-xxx-xxxx-021-SF,Ba,,25
90490,39_F,TAATTCCGAAAGCATGTAAG,39,20,45.611320684046966,0.6908610555389174,35.0,3,0.15,Ba_4,F,39_R,TGGTCTACTTGCAGTTATTATT,22,47.02461759897994,0.7224358593940536,31.818181818181817,2,0.0,R,S6,A0706,Ba,,0
90491,39_F,TAATTCCGAAAGCATGTAAG,39,20,45.611320684046966,0.6908610555389174,35.0,3,0.15,Ba_4,F,39_R,TGGTCTACTTGCAGTTATTATT,22,47.02461759897994,0.7224358593940536,31.818181818181817,2,0.0,R,S5,A0615,Ba,,2
90492,39_F,TAATTCCGAAAGCATGTAAG,39,20,45.611320684046966,0.6908610555389174,35.0,3,0.15,Ba_4,F,39_R,TGGTCTACTTGCAGTTATTATT,22,47.02461759897994,0.7224358593940536,31.818181818181817,2,0.0,R,S2,A0330,Ba,,1
90493,39_F,TAATTCCGAAAGCATGTAAG,39,20,45.611320684046966,0.6908610555389174,35.0,3,0.15,Ba_4,F,39_R,TGGTCTACTTGCAGTTATTATT,22,47.02461759897994,0.7224358593940536,31.818181818181817,2,0.0,R,S4,A0605,Ba,,1768
90563,39_F,TAATTCCGAAAGCATGTAAG,39,20,45.611320684046966,0.6908610555389174,35.0,3,0.15,Ba_4,F,39_R,TGGTCTACTTGCAGTTATTATT,22,47.02461759897994,0.7224358593940536,31.818181818181817,2,0.0,R,S144,BA-BaBTSeqBa007P2--xx-xxx-xxxx-021-SF,Ba,,25
92340,40_F,TAACATATGGAGGGACAACA,40,20,47.420909241339935,0.2057855805973148,40.0,3,0.15,Ba_V45,F,40_R,AATAGCCTCTCTCTGAAAA,19,44.54366733101858,2.6714563297240304,36.84210526315789,4,0.21052631578947367,R,S5,A0615,Ba,,6
92339,40_F,TAACATATGGAGGGACAACA,40,20,47.420909241339935,0.2057855805973148,40.0,3,0.15,Ba_V45,F,40_R,AATAGCCTCTCTCTGAAAA,19,44.54366733101858,2.6714563297240304,36.84210526315789,4,0.21052631578947367,R,S4,A0605,Ba,,4806
92338,40_F,TAACATATGGAGGGACAACA,40,20,47.420909241339935,0.2057855805973148,40.0,3,0.15,Ba_V45,F,40_R,AATAGCCTCTCTCTGAAAA,19,44.54366733101858,2.6714563297240304,36.84210526315789,4,0.21052631578947367,R,S2,A0330,Ba,,3
92337,40_F,TAACATATGGAGGGACAACA,40,20,47.420909241339935,0.2057855805973148,40.0,3,0.15,Ba_V45,F,40_R,AATAGCCTCTCTCTGAAAA,19,44.54366733101858,2.6714563297240304,36.84210526315789,4,0.21052631578947367,R,S6,A0706,Ba,,17
92469,40_F,ATCGACATCAACGCGAGCCAGCG,40,23,62.23134675604433,11.065135101360221,60.86956521739131,2,0.0,Yp_1_V2,F,40_R,AAGGGCAAACCGACCGATT,19,54.08459286677123,2.9183812120871195,52.631578947368425,3,0.3157894736842105,R,S5,A0615,Ba,,6
92468,40_F,ATCGACATCAACGCGAGCCAGCG,40,23,62.23134675604433,11.065135101360221,60.86956521739131,2,0.0,Yp_1_V2,F,40_R,AAGGGCAAACCGACCGATT,19,54.08459286677123,2.9183812120871195,52.631578947368425,3,0.3157894736842105,R,S4,A0605,Ba,,4806
92467,40_F,ATCGACATCAACGCGAGCCAGCG,40,23,62.23134675604433,11.065135101360221,60.86956521739131,2,0.0,Yp_1_V2,F,40_R,AAGGGCAAACCGACCGATT,19,54.08459286677123,2.9183812120871195,52.631578947368425,3,0.3157894736842105,R,S2,A0330,Ba,,3
92466,40_F,ATCGACATCAACGCGAGCCAGCG,40,23,62.23134675604433,11.065135101360221,60.86956521739131,2,0.0,Yp_1_V2,F,40_R,AAGGGCAAACCGACCGATT,19,54.08459286677123,2.9183812120871195,52.631578947368425,3,0.3157894736842105,R,S6,A0706,Ba,,17
92413,40_F,TAACATATGGAGGGACAACA,40,20,47.420909241339935,0.2057855805973148,40.0,3,0.15,Ba_V45,F,40_R,AATAGCCTCTCTCTGAAAA,19,44.54366733101858,2.6714563297240304,36.84210526315789,4,0.21052631578947367,R,S144,BA-BaBTSeqBa007P2--xx-xxx-xxxx-021-SF,Ba,,608
92209,40_F,TAACATATGGAGGGACAACA,40,20,47.420909241339935,0.17784561582431735,40.0,3,0.15,Ba_6_V4,F,40_R,AATAGCCTCTCTCTGAAAA,19,44.54366733101858,2.6993962944970287,36.84210526315789,4,0.21052631578947367,R,S2,A0330,Ba,,3
92208,40_F,TAACATATGGAGGGACAACA,40,20,47.420909241339935,0.17784561582431735,40.0,3,0.15,Ba_6_V4,F,40_R,AATAGCCTCTCTCTGAAAA,19,44.54366733101858,2.6993962944970287,36.84210526315789,4,0.21052631578947367,R,S6,A0706,Ba,,17
92210,40_F,TAACATATGGAGGGACAACA,40,20,47.420909241339935,0.17784561582431735,40.0,3,0.15,Ba_6_V4,F,40_R,AATAGCCTCTCTCTGAAAA,19,44.54366733101858,2.6993962944970287,36.84210526315789,4,0.21052631578947367,R,S4,A0605,Ba,,4806
92211,40_F,TAACATATGGAGGGACAACA,40,20,47.420909241339935,0.17784561582431735,40.0,3,0.15,Ba_6_V4,F,40_R,AATAGCCTCTCTCTGAAAA,19,44.54366733101858,2.6993962944970287,36.84210526315789,4,0.21052631578947367,R,S5,A0615,Ba,,6
92155,40_F,TAACATATGGAGGGACAACA,40,20,47.420909241339935,1.1187275017540372,40.0,3,0.15,Ba_5_V3,F,40_R,AATAGCCTCTCTCTGAAAA,19,44.54366733101858,1.7585144085673081,36.84210526315789,4,0.21052631578947367,R,S144,BA-BaBTSeqBa007P2--xx-xxx-xxxx-021-SF,Ba,,608
92284,40_F,TAACATATGGAGGGACAACA,40,20,47.420909241339935,0.17784561582431735,40.0,3,0.15,Ba_6_V4,F,40_R,AATAGCCTCTCTCTGAAAA,19,44.54366733101858,2.6993962944970287,36.84210526315789,4,0.21052631578947367,R,S144,BA-BaBTSeqBa007P2--xx-xxx-xxxx-021-SF,Ba,,608
92727,40_F,GTCCATCCGGTGCCGTTACA,40,20,56.709351780584775,4.712121560100377,60.0,2,0.0,Yp_2,F,40_R,TGGCCTTGGGTGATTTACT,19,50.2701201168336,1.7271101036507943,47.368421052631575,3,0.3157894736842105,R,S5,A0615,Ba,,6
92726,40_F,GTCCATCCGGTGCCGTTACA,40,20,56.709351780584775,4.712121560100377,60.0,2,0.0,Yp_2,F,40_R,TGGCCTTGGGTGATTTACT,19,50.2701201168336,1.7271101036507943,47.368421052631575,3,0.3157894736842105,R,S4,A0605,Ba,,4806
92725,40_F,GTCCATCCGGTGCCGTTACA,40,20,56.709351780584775,4.712121560100377,60.0,2,0.0,Yp_2,F,40_R,TGGCCTTGGGTGATTTACT,19,50.2701201168336,1.7271101036507943,47.368421052631575,3,0.3157894736842105,R,S2,A0330,Ba,,3
92724,40_F,GTCCATCCGGTGCCGTTACA,40,20,56.709351780584775,4.712121560100377,60.0,2,0.0,Yp_2,F,40_R,TGGCCTTGGGTGATTTACT,19,50.2701201168336,1.7271101036507943,47.368421052631575,3,0.3157894736842105,R,S6,A0706,Ba,,17
92800,40_F,GTCCATCCGGTGCCGTTACA,40,20,56.709351780584775,4.712121560100377,60.0,2,0.0,Yp_2,F,40_R,TGGCCTTGGGTGATTTACT,19,50.2701201168336,1.7271101036507943,47.368421052631575,3,0.3157894736842105,R,S144,BA-BaBTSeqBa007P2--xx-xxx-xxxx-021-SF,Ba,,608
92542,40_F,ATCGACATCAACGCGAGCCAGCG,40,23,62.23134675604433,11.065135101360221,60.86956521739131,2,0.0,Yp_1_V2,F,40_R,AAGGGCAAACCGACCGATT,19,54.08459286677123,2.9183812120871195,52.631578947368425,3,0.3157894736842105,R,S144,BA-BaBTSeqBa007P2--xx-xxx-xxxx-021-SF,Ba,,608
92671,40_F,ATCGACATCAACGCGAGCCAGCG,40,23,62.23134675604433,10.806457003401649,60.86956521739131,2,0.0,Yp_1,F,40_R,AAGGGCAAACCGACCGATT,19,54.08459286677123,2.659703114128547,52.631578947368425,3,0.3157894736842105,R,S144,BA-BaBTSeqBa007P2--xx-xxx-xxxx-021-SF,Ba,,608
92598,40_F,ATCGACATCAACGCGAGCCAGCG,40,23,62.23134675604433,10.806457003401649,60.86956521739131,2,0.0,Yp_1,F,40_R,AAGGGCAAACCGACCGATT,19,54.08459286677123,2.659703114128547,52.631578947368425,3,0.3157894736842105,R,S5,A0615,Ba,,6
92597,40_F,ATCGACATCAACGCGAGCCAGCG,40,23,62.23134675604433,10.806457003401649,60.86956521739131,2,0.0,Yp_1,F,40_R,AAGGGCAAACCGACCGATT,19,54.08459286677123,2.659703114128547,52.631578947368425,3,0.3157894736842105,R,S4,A0605,Ba,,4806
92596,40_F,ATCGACATCAACGCGAGCCAGCG,40,23,62.23134675604433,10.806457003401649,60.86956521739131,2,0.0,Yp_1,F,40_R,AAGGGCAAACCGACCGATT,19,54.08459286677123,2.659703114128547,52.631578947368425,3,0.3157894736842105,R,S2,A0330,Ba,,3
92595,40_F,ATCGACATCAACGCGAGCCAGCG,40,23,62.23134675604433,10.806457003401649,60.86956521739131,2,0.0,Yp_1,F,40_R,AAGGGCAAACCGACCGATT,19,54.08459286677123,2.659703114128547,52.631578947368425,3,0.3157894736842105,R,S6,A0706,Ba,,17
91695,40_F,TAACATATGGAGGGACAACA,40,20,47.420909241339935,2.584601115582928,40.0,3,0.15,Ba_3,F,40_R,AATAGCCTCTCTCTGAAAA,19,44.54366733101858,0.2926407947384177,36.84210526315789,4,0.21052631578947367,R,S5,A0615,Ba,,6
91694,40_F,TAACATATGGAGGGACAACA,40,20,47.420909241339935,2.584601115582928,40.0,3,0.15,Ba_3,F,40_R,AATAGCCTCTCTCTGAAAA,19,44.54366733101858,0.2926407947384177,36.84210526315789,4,0.21052631578947367,R,S4,A0605,Ba,,4806
91693,40_F,TAACATATGGAGGGACAACA,40,20,47.420909241339935,2.584601115582928,40.0,3,0.15,Ba_3,F,40_R,AATAGCCTCTCTCTGAAAA,19,44.54366733101858,0.2926407947384177,36.84210526315789,4,0.21052631578947367,R,S2,A0330,Ba,,3
91692,40_F,TAACATATGGAGGGACAACA,40,20,47.420909241339935,2.584601115582928,40.0,3,0.15,Ba_3,F,40_R,AATAGCCTCTCTCTGAAAA,19,44.54366733101858,0.2926407947384177,36.84210526315789,4,0.21052631578947367,R,S6,A0706,Ba,,17
91434,40_F,TAACATATGGAGGGACAACA,40,20,47.420909241339935,2.584601115582928,40.0,3,0.15,Ba_1,F,40_R,AATAGCCTCTCTCTGAAAA,19,44.54366733101858,0.2926407947384177,36.84210526315789,4,0.21052631578947367,R,S6,A0706,Ba,,17