,Primer_Name_L,Seq_L,Amplicon,Primer_Length_L,Tm_L,Delta Tm_L,GC_Content_L,Length_Longest_Homopolymer_L,Percent_Homopolymer_L,exp,flank_L,Primer_Name_R,Seq_R,Primer_Length_R,Tm_R,Delta Tm_R,GC_Content_R,Length_Longest_Homopolymer_R,Percent_Homopolymer_R,flank_R,sample_id,sample_name,species,strain,n_reads
8556,8_F,TTGCGAAAAGTATTGTTG,8,18,43.44803059032131,1.3882775354356909,33.33333333333333,4,0.2222222222222222,Ba_1,F,8_R,CCCTTTTAAAATAAGCCT,18,41.094954642192995,3.7413534835640117,33.33333333333333,4,0.6111111111111112,R,S2,A0330,Ba,,0
8557,8_F,TTGCGAAAAGTATTGTTG,8,18,43.44803059032131,1.3882775354356909,33.33333333333333,4,0.2222222222222222,Ba_1,F,8_R,CCCTTTTAAAATAAGCCT,18,41.094954642192995,3.7413534835640117,33.33333333333333,4,0.6111111111111112,R,S4,A0605,Ba,,15
8558,8_F,TTGCGAAAAGTATTGTTG,8,18,43.44803059032131,1.3882775354356909,33.33333333333333,4,0.2222222222222222,Ba_1,F,8_R,CCCTTTTAAAATAAGCCT,18,41.094954642192995,3.7413534835640117,33.33333333333333,4,0.6111111111111112,R,S6,A0706,Ba,,0
8559,8_F,TTGCGAAAAGTATTGTTG,8,18,43.44803059032131,1.3882775354356909,33.33333333333333,4,0.2222222222222222,Ba_1,F,8_R,CCCTTTTAAAATAAGCCT,18,41.094954642192995,3.7413534835640117,33.33333333333333,4,0.6111111111111112,R,S5,A0615,Ba,,0
9679,8_F,CGAGAGAAGAGTTAGC,8,16,41.81067128003872,5.404452380703894,50.0,2,0.0,Ba_V45,F,8_R,CTATAACCTAATCGTCAACATGT,23,48.24512501315002,1.0300013524074032,34.78260869565217,2,0.0,R,S5,A0615,Ba,,0
9678,8_F,CGAGAGAAGAGTTAGC,8,16,41.81067128003872,5.404452380703894,50.0,2,0.0,Ba_V45,F,8_R,CTATAACCTAATCGTCAACATGT,23,48.24512501315002,1.0300013524074032,34.78260869565217,2,0.0,R,S6,A0706,Ba,,0
9677,8_F,CGAGAGAAGAGTTAGC,8,16,41.81067128003872,5.404452380703894,50.0,2,0.0,Ba_V45,F,8_R,CTATAACCTAATCGTCAACATGT,23,48.24512501315002,1.0300013524074032,34.78260869565217,2,0.0,R,S4,A0605,Ba,,15
9676,8_F,CGAGAGAAGAGTTAGC,8,16,41.81067128003872,5.404452380703894,50.0,2,0.0,Ba_V45,F,8_R,CTATAACCTAATCGTCAACATGT,23,48.24512501315002,1.0300013524074032,34.78260869565217,2,0.0,R,S2,A0330,Ba,,0
8786,8_F,TTGCGAAAAGTATTGTTG,8,18,43.44803059032131,1.3882775354356909,33.33333333333333,4,0.2222222222222222,Ba_2,F,8_R,CCCTTTTAAAATAAGCCT,18,41.094954642192995,3.7413534835640117,33.33333333333333,4,0.6111111111111112,R,S144,BA-BaBTSeqBa007P2--xx-xxx-xxxx-021-SF,Ba,,7
8719,8_F,TTGCGAAAAGTATTGTTG,8,18,43.44803059032131,1.3882775354356909,33.33333333333333,4,0.2222222222222222,Ba_2,F,8_R,CCCTTTTAAAATAAGCCT,18,41.094954642192995,3.7413534835640117,33.33333333333333,4,0.6111111111111112,R,S5,A0615,Ba,,0
8626,8_F,TTGCGAAAAGTATTGTTG,8,18,43.44803059032131,1.3882775354356909,33.33333333333333,4,0.2222222222222222,Ba_1,F,8_R,CCCTTTTAAAATAAGCCT,18,41.094954642192995,3.7413534835640117,33.33333333333333,4,0.6111111111111112,R,S144,BA-BaBTSeqBa007P2--xx-xxx-xxxx-021-SF,Ba,,7
8716,8_F,TTGCGAAAAGTATTGTTG,8,18,43.44803059032131,1.3882775354356909,33.33333333333333,4,0.2222222222222222,Ba_2,F,8_R,CCCTTTTAAAATAAGCCT,18,41.094954642192995,3.7413534835640117,33.33333333333333,4,0.6111111111111112,R,S2,A0330,Ba,,0
8717,8_F,TTGCGAAAAGTATTGTTG,8,18,43.44803059032131,1.3882775354356909,33.33333333333333,4,0.2222222222222222,Ba_2,F,8_R,CCCTTTTAAAATAAGCCT,18,41.094954642192995,3.7413534835640117,33.33333333333333,4,0.6111111111111112,R,S4,A0605,Ba,,15
8718,8_F,TTGCGAAAAGTATTGTTG,8,18,43.44803059032131,1.3882775354356909,33.33333333333333,4,0.2222222222222222,Ba_2,F,8_R,CCCTTTTAAAATAAGCCT,18,41.094954642192995,3.7413534835640117,33.33333333333333,4,0.6111111111111112,R,S6,A0706,Ba,,0
9997,8_F,ATTATTTGGTCATTGCTGTT,8,20,45.428976078284556,4.628211765529329,30.0,3,0.15,Ft_2_V2,F,8_R,ATCACGAATCCACTGAATAACAG,23,50.864200416050274,0.8070125722363741,39.130434782608695,2,0.0,R,S4,A0605,Ba,,15
9996,8_F,ATTATTTGGTCATTGCTGTT,8,20,45.428976078284556,4.628211765529329,30.0,3,0.15,Ft_2_V2,F,8_R,ATCACGAATCCACTGAATAACAG,23,50.864200416050274,0.8070125722363741,39.130434782608695,2,0.0,R,S2,A0330,Ba,,0
9998,8_F,ATTATTTGGTCATTGCTGTT,8,20,45.428976078284556,4.628211765529329,30.0,3,0.15,Ft_2_V2,F,8_R,ATCACGAATCCACTGAATAACAG,23,50.864200416050274,0.8070125722363741,39.130434782608695,2,0.0,R,S6,A0706,Ba,,0
9999,8_F,ATTATTTGGTCATTGCTGTT,8,20,45.428976078284556,4.628211765529329,30.0,3,0.15,Ft_2_V2,F,8_R,ATCACGAATCCACTGAATAACAG,23,50.864200416050274,0.8070125722363741,39.130434782608695,2,0.0,R,S5,A0615,Ba,,0
10066,8_F,ATTATTTGGTCATTGCTGTT,8,20,45.428976078284556,4.628211765529329,30.0,3,0.15,Ft_2_V2,F,8_R,ATCACGAATCCACTGAATAACAG,23,50.864200416050274,0.8070125722363741,39.130434782608695,2,0.0,R,S144,BA-BaBTSeqBa007P2--xx-xxx-xxxx-021-SF,Ba,,7
9746,8_F,CGAGAGAAGAGTTAGC,8,16,41.81067128003872,5.404452380703894,50.0,2,0.0,Ba_V45,F,8_R,CTATAACCTAATCGTCAACATGT,23,48.24512501315002,1.0300013524074032,34.78260869565217,2,0.0,R,S144,BA-BaBTSeqBa007P2--xx-xxx-xxxx-021-SF,Ba,,7
9906,8_F,TATTTGGTCATTGCTGTTT,8,19,44.6411916821849,4.215099918039108,31.578947368421048,3,0.3157894736842105,Ft_1,F,8_R,CACTGAATAACAGCTCCT,18,45.44878045763511,3.4075111425889086,44.444444444444436,2,0.0,R,S144,BA-BaBTSeqBa007P2--xx-xxx-xxxx-021-SF,Ba,,7
9839,8_F,TATTTGGTCATTGCTGTTT,8,19,44.6411916821849,4.215099918039108,31.578947368421048,3,0.3157894736842105,Ft_1,F,8_R,CACTGAATAACAGCTCCT,18,45.44878045763511,3.4075111425889086,44.444444444444436,2,0.0,R,S5,A0615,Ba,,0
9838,8_F,TATTTGGTCATTGCTGTTT,8,19,44.6411916821849,4.215099918039108,31.578947368421048,3,0.3157894736842105,Ft_1,F,8_R,CACTGAATAACAGCTCCT,18,45.44878045763511,3.4075111425889086,44.444444444444436,2,0.0,R,S6,A0706,Ba,,0
9837,8_F,TATTTGGTCATTGCTGTTT,8,19,44.6411916821849,4.215099918039108,31.578947368421048,3,0.3157894736842105,Ft_1,F,8_R,CACTGAATAACAGCTCCT,18,45.44878045763511,3.4075111425889086,44.444444444444436,2,0.0,R,S4,A0605,Ba,,15
9836,8_F,TATTTGGTCATTGCTGTTT,8,19,44.6411916821849,4.215099918039108,31.578947368421048,3,0.3157894736842105,Ft_1,F,8_R,CACTGAATAACAGCTCCT,18,45.44878045763511,3.4075111425889086,44.444444444444436,2,0.0,R,S2,A0330,Ba,,0
9356,8_F,CCTTGGATTGGCGATTGCGAA,8,21,56.08710899788639,9.7849272583005,52.38095238095239,2,0.0,Ba_5_V3,F,8_R,CTATAACCTAATCGTCAACATGT,23,48.24512501315002,1.9429432735641257,34.78260869565217,2,0.0,R,S2,A0330,Ba,,0
9357,8_F,CCTTGGATTGGCGATTGCGAA,8,21,56.08710899788639,9.7849272583005,52.38095238095239,2,0.0,Ba_5_V3,F,8_R,CTATAACCTAATCGTCAACATGT,23,48.24512501315002,1.9429432735641257,34.78260869565217,2,0.0,R,S4,A0605,Ba,,15
9358,8_F,CCTTGGATTGGCGATTGCGAA,8,21,56.08710899788639,9.7849272583005,52.38095238095239,2,0.0,Ba_5_V3,F,8_R,CTATAACCTAATCGTCAACATGT,23,48.24512501315002,1.9429432735641257,34.78260869565217,2,0.0,R,S6,A0706,Ba,,0
9359,8_F,CCTTGGATTGGCGATTGCGAA,8,21,56.08710899788639,9.7849272583005,52.38095238095239,2,0.0,Ba_5_V3,F,8_R,CTATAACCTAATCGTCAACATGT,23,48.24512501315002,1.9429432735641257,34.78260869565217,2,0.0,R,S5,A0615,Ba,,0
9266,8_F,CCTTGGATTGGCGATTGCGAA,8,21,56.08710899788639,9.614591550773175,52.38095238095239,2,0.0,Ba_5_V35,F,8_R,CTATAACCTAATCGTCAACATGT,23,48.24512501315002,1.772607566036804,34.78260869565217,2,0.0,R,S144,BA-BaBTSeqBa007P2--xx-xxx-xxxx-021-SF,Ba,,7
9516,8_F,CGAGAGAAGAGTTAGC,8,16,41.81067128003872,5.432392345476892,50.0,2,0.0,Ba_6_V4,F,8_R,CTATAACCTAATCGTCAACATGT,23,48.24512501315002,1.0020613876344058,34.78260869565217,2,0.0,R,S2,A0330,Ba,,0
9517,8_F,CGAGAGAAGAGTTAGC,8,16,41.81067128003872,5.432392345476892,50.0,2,0.0,Ba_6_V4,F,8_R,CTATAACCTAATCGTCAACATGT,23,48.24512501315002,1.0020613876344058,34.78260869565217,2,0.0,R,S4,A0605,Ba,,15
9518,8_F,CGAGAGAAGAGTTAGC,8,16,41.81067128003872,5.432392345476892,50.0,2,0.0,Ba_6_V4,F,8_R,CTATAACCTAATCGTCAACATGT,23,48.24512501315002,1.0020613876344058,34.78260869565217,2,0.0,R,S6,A0706,Ba,,0
9519,8_F,CGAGAGAAGAGTTAGC,8,16,41.81067128003872,5.432392345476892,50.0,2,0.0,Ba_6_V4,F,8_R,CTATAACCTAATCGTCAACATGT,23,48.24512501315002,1.0020613876344058,34.78260869565217,2,0.0,R,S5,A0615,Ba,,0
9586,8_F,CGAGAGAAGAGTTAGC,8,16,41.81067128003872,5.432392345476892,50.0,2,0.0,Ba_6_V4,F,8_R,CTATAACCTAATCGTCAACATGT,23,48.24512501315002,1.0020613876344058,34.78260869565217,2,0.0,R,S144,BA-BaBTSeqBa007P2--xx-xxx-xxxx-021-SF,Ba,,7
9426,8_F,CCTTGGATTGGCGATTGCGAA,8,21,56.08710899788639,9.7849272583005,52.38095238095239,2,0.0,Ba_5_V3,F,8_R,CTATAACCTAATCGTCAACATGT,23,48.24512501315002,1.9429432735641257,34.78260869565217,2,0.0,R,S144,BA-BaBTSeqBa007P2--xx-xxx-xxxx-021-SF,Ba,,7
8946,8_F,TTGCGAAAAGTATTGTTG,8,18,43.44803059032131,1.3882775354356909,33.33333333333333,4,0.2222222222222222,Ba_3,F,8_R,CCCTTTTAAAATAAGCCT,18,41.094954642192995,3.7413534835640117,33.33333333333333,4,0.6111111111111112,R,S144,BA-BaBTSeqBa007P2--xx-xxx-xxxx-021-SF,Ba,,7
8876,8_F,TTGCGAAAAGTATTGTTG,8,18,43.44803059032131,1.3882775354356909,33.33333333333333,4,0.2222222222222222,Ba_3,F,8_R,CCCTTTTAAAATAAGCCT,18,41.094954642192995,3.7413534835640117,33.33333333333333,4,0.6111111111111112,R,S2,A0330,Ba,,0
8877,8_F,TTGCGAAAAGTATTGTTG,8,18,43.44803059032131,1.3882775354356909,33.33333333333333,4,0.2222222222222222,Ba_3,F,8_R,CCCTTTTAAAATAAGCCT,18,41.094954642192995,3.7413534835640117,33.33333333333333,4,0.6111111111111112,R,S4,A0605,Ba,,15
8878,8_F,TTGCGAAAAGTATTGTTG,8,18,43.44803059032131,1.3882775354356909,33.33333333333333,4,0.2222222222222222,Ba_3,F,8_R,CCCTTTTAAAATAAGCCT,18,41.094954642192995,3.7413534835640117,33.33333333333333,4,0.6111111111111112,R,S6,A0706,Ba,,0
8879,8_F,TTGCGAAAAGTATTGTTG,8,18,43.44803059032131,1.3882775354356909,33.33333333333333,4,0.2222222222222222,Ba_3,F,8_R,CCCTTTTAAAATAAGCCT,18,41.094954642192995,3.7413534835640117,33.33333333333333,4,0.6111111111111112,R,S5,A0615,Ba,,0
9196,8_F,CCTTGGATTGGCGATTGCGAA,8,21,56.08710899788639,9.614591550773175,52.38095238095239,2,0.0,Ba_5_V35,F,8_R,CTATAACCTAATCGTCAACATGT,23,48.24512501315002,1.772607566036804,34.78260869565217,2,0.0,R,S2,A0330,Ba,,0
9197,8_F,CCTTGGATTGGCGATTGCGAA,8,21,56.08710899788639,9.614591550773175,52.38095238095239,2,0.0,Ba_5_V35,F,8_R,CTATAACCTAATCGTCAACATGT,23,48.24512501315002,1.772607566036804,34.78260869565217,2,0.0,R,S4,A0605,Ba,,15
9198,8_F,CCTTGGATTGGCGATTGCGAA,8,21,56.08710899788639,9.614591550773175,52.38095238095239,2,0.0,Ba_5_V35,F,8_R,CTATAACCTAATCGTCAACATGT,23,48.24512501315002,1.772607566036804,34.78260869565217,2,0.0,R,S6,A0706,Ba,,0
9199,8_F,CCTTGGATTGGCGATTGCGAA,8,21,56.08710899788639,9.614591550773175,52.38095238095239,2,0.0,Ba_5_V35,F,8_R,CTATAACCTAATCGTCAACATGT,23,48.24512501315002,1.772607566036804,34.78260869565217,2,0.0,R,S5,A0615,Ba,,0
9039,8_F,CCTTGGATTGGCGATTGCGAA,8,21,56.08710899788639,9.7849272583005,52.38095238095239,2,0.0,Ba_4,F,8_R,CTATAACCTAATCGTCAACATGT,23,48.24512501315002,1.9429432735641257,34.78260869565217,2,0.0,R,S5,A0615,Ba,,0
9038,8_F,CCTTGGATTGGCGATTGCGAA,8,21,56.08710899788639,9.7849272583005,52.38095238095239,2,0.0,Ba_4,F,8_R,CTATAACCTAATCGTCAACATGT,23,48.24512501315002,1.9429432735641257,34.78260869565217,2,0.0,R,S6,A0706,Ba,,0
9036,8_F,CCTTGGATTGGCGATTGCGAA,8,21,56.08710899788639,9.7849272583005,52.38095238095239,2,0.0,Ba_4,F,8_R,CTATAACCTAATCGTCAACATGT,23,48.24512501315002,1.9429432735641257,34.78260869565217,2,0.0,R,S2,A0330,Ba,,0
9037,8_F,CCTTGGATTGGCGATTGCGAA,8,21,56.08710899788639,9.7849272583005,52.38095238095239,2,0.0,Ba_4,F,8_R,CTATAACCTAATCGTCAACATGT,23,48.24512501315002,1.9429432735641257,34.78260869565217,2,0.0,R,S4,A0605,Ba,,15
9106,8_F,CCTTGGATTGGCGATTGCGAA,8,21,56.08710899788639,9.7849272583005,52.38095238095239,2,0.0,Ba_4,F,8_R,CTATAACCTAATCGTCAACATGT,23,48.24512501315002,1.9429432735641257,34.78260869565217,2,0.0,R,S144,BA-BaBTSeqBa007P2--xx-xxx-xxxx-021-SF,Ba,,7
10546,8_F,CCAGGTAACACACAGCTA,8,18,47.742163779569815,3.682725973072877,50.0,2,0.0,Yp_1,F,8_R,AATGAGTCACGTTGAGTC,18,46.361774946738024,5.063114805904662,44.444444444444436,2,0.0,R,S144,BA-BaBTSeqBa007P2--xx-xxx-xxxx-021-SF,Ba,,7
10476,8_F,CCAGGTAACACACAGCTA,8,18,47.742163779569815,3.682725973072877,50.0,2,0.0,Yp_1,F,8_R,AATGAGTCACGTTGAGTC,18,46.361774946738024,5.063114805904662,44.444444444444436,2,0.0,R,S2,A0330,Ba,,0
10477,8_F,CCAGGTAACACACAGCTA,8,18,47.742163779569815,3.682725973072877,50.0,2,0.0,Yp_1,F,8_R,AATGAGTCACGTTGAGTC,18,46.361774946738024,5.063114805904662,44.444444444444436,2,0.0,R,S4,A0605,Ba,,15
10478,8_F,CCAGGTAACACACAGCTA,8,18,47.742163779569815,3.682725973072877,50.0,2,0.0,Yp_1,F,8_R,AATGAGTCACGTTGAGTC,18,46.361774946738024,5.063114805904662,44.444444444444436,2,0.0,R,S6,A0706,Ba,,0
10479,8_F,CCAGGTAACACACAGCTA,8,18,47.742163779569815,3.682725973072877,50.0,2,0.0,Yp_1,F,8_R,AATGAGTCACGTTGAGTC,18,46.361774946738024,5.063114805904662,44.444444444444436,2,0.0,R,S5,A0615,Ba,,0
10636,8_F,CGTCAGTGGGCAAGGTAC,8,18,52.101744303050396,0.10451408256600557,61.111111111111114,3,0.16666666666666666,Yp_2,F,8_R,ATCAATGAGTCACGTTGAGTC,21,50.29878621125015,1.6984440092342297,42.857142857142854,2,0.0,R,S2,A0330,Ba,,0
10637,8_F,CGTCAGTGGGCAAGGTAC,8,18,52.101744303050396,0.10451408256600557,61.111111111111114,3,0.16666666666666666,Yp_2,F,8_R,ATCAATGAGTCACGTTGAGTC,21,50.29878621125015,1.6984440092342297,42.857142857142854,2,0.0,R,S4,A0605,Ba,,15
10638,8_F,CGTCAGTGGGCAAGGTAC,8,18,52.101744303050396,0.10451408256600557,61.111111111111114,3,0.16666666666666666,Yp_2,F,8_R,ATCAATGAGTCACGTTGAGTC,21,50.29878621125015,1.6984440092342297,42.857142857142854,2,0.0,R,S6,A0706,Ba,,0
10639,8_F,CGTCAGTGGGCAAGGTAC,8,18,52.101744303050396,0.10451408256600557,61.111111111111114,3,0.16666666666666666,Yp_2,F,8_R,ATCAATGAGTCACGTTGAGTC,21,50.29878621125015,1.6984440092342297,42.857142857142854,2,0.0,R,S5,A0615,Ba,,0
10706,8_F,CGTCAGTGGGCAAGGTAC,8,18,52.101744303050396,0.10451408256600557,61.111111111111114,3,0.16666666666666666,Yp_2,F,8_R,ATCAATGAGTCACGTTGAGTC,21,50.29878621125015,1.6984440092342297,42.857142857142854,2,0.0,R,S144,BA-BaBTSeqBa007P2--xx-xxx-xxxx-021-SF,Ba,,7
10226,8_F,ATTATTTGGTCATTGCTGTT,8,20,45.428976078284556,4.843799761125447,30.0,3,0.15,Ft_2,F,8_R,ATCACGAATCCACTGAATAACAG,23,50.864200416050274,0.5914245766402573,39.130434782608695,2,0.0,R,S144,BA-BaBTSeqBa007P2--xx-xxx-xxxx-021-SF,Ba,,7
10156,8_F,ATTATTTGGTCATTGCTGTT,8,20,45.428976078284556,4.843799761125447,30.0,3,0.15,Ft_2,F,8_R,ATCACGAATCCACTGAATAACAG,23,50.864200416050274,0.5914245766402573,39.130434782608695,2,0.0,R,S2,A0330,Ba,,0
10157,8_F,ATTATTTGGTCATTGCTGTT,8,20,45.428976078284556,4.843799761125447,30.0,3,0.15,Ft_2,F,8_R,ATCACGAATCCACTGAATAACAG,23,50.864200416050274,0.5914245766402573,39.130434782608695,2,0.0,R,S4,A0605,Ba,,15
10158,8_F,ATTATTTGGTCATTGCTGTT,8,20,45.428976078284556,4.843799761125447,30.0,3,0.15,Ft_2,F,8_R,ATCACGAATCCACTGAATAACAG,23,50.864200416050274,0.5914245766402573,39.130434782608695,2,0.0,R,S6,A0706,Ba,,0
10159,8_F,ATTATTTGGTCATTGCTGTT,8,20,45.428976078284556,4.843799761125447,30.0,3,0.15,Ft_2,F,8_R,ATCACGAATCCACTGAATAACAG,23,50.864200416050274,0.5914245766402573,39.130434782608695,2,0.0,R,S5,A0615,Ba,,0
10386,8_F,CCAGGTAACACACAGCTA,8,18,47.742163779569815,3.4240478751143044,50.0,2,0.0,Yp_1_V2,F,8_R,AATGAGTCACGTTGAGTC,18,46.361774946738024,4.8044367079460875,44.444444444444436,2,0.0,R,S144,BA-BaBTSeqBa007P2--xx-xxx-xxxx-021-SF,Ba,,7
10316,8_F,CCAGGTAACACACAGCTA,8,18,47.742163779569815,3.4240478751143044,50.0,2,0.0,Yp_1_V2,F,8_R,AATGAGTCACGTTGAGTC,18,46.361774946738024,4.8044367079460875,44.444444444444436,2,0.0,R,S2,A0330,Ba,,0
10317,8_F,CCAGGTAACACACAGCTA,8,18,47.742163779569815,3.4240478751143044,50.0,2,0.0,Yp_1_V2,F,8_R,AATGAGTCACGTTGAGTC,18,46.361774946738024,4.8044367079460875,44.444444444444436,2,0.0,R,S4,A0605,Ba,,15
10318,8_F,CCAGGTAACACACAGCTA,8,18,47.742163779569815,3.4240478751143044,50.0,2,0.0,Yp_1_V2,F,8_R,AATGAGTCACGTTGAGTC,18,46.361774946738024,4.8044367079460875,44.444444444444436,2,0.0,R,S6,A0706,Ba,,0
10319,8_F,CCAGGTAACACACAGCTA,8,18,47.742163779569815,3.4240478751143044,50.0,2,0.0,Yp_1_V2,F,8_R,AATGAGTCACGTTGAGTC,18,46.361774946738024,4.8044367079460875,44.444444444444436,2,0.0,R,S5,A0615,Ba,,0
11653,9_F,ATCTAAATACACGTGCGG,9,18,46.64826005855907,0.17574261144584824,44.444444444444436,3,0.16666666666666666,Ba_5_V35,F,9_R,GGTTTCTACTGTGTATGTTG,20,45.92034864664402,0.5521688004691967,40.0,3,0.15,R,S144,BA-BaBTSeqBa007P2--xx-xxx-xxxx-021-SF,Ba,,587
11583,9_F,ATCTAAATACACGTGCGG,9,18,46.64826005855907,0.17574261144584824,44.444444444444436,3,0.16666666666666666,Ba_5_V35,F,9_R,GGTTTCTACTGTGTATGTTG,20,45.92034864664402,0.5521688004691967,40.0,3,0.15,R,S2,A0330,Ba,,8
11582,9_F,ATCTAAATACACGTGCGG,9,18,46.64826005855907,0.17574261144584824,44.444444444444436,3,0.16666666666666666,Ba_5_V35,F,9_R,GGTTTCTACTGTGTATGTTG,20,45.92034864664402,0.5521688004691967,40.0,3,0.15,R,S6,A0706,Ba,,6
11581,9_F,ATCTAAATACACGTGCGG,9,18,46.64826005855907,0.17574261144584824,44.444444444444436,3,0.16666666666666666,Ba_5_V35,F,9_R,GGTTTCTACTGTGTATGTTG,20,45.92034864664402,0.5521688004691967,40.0,3,0.15,R,S5,A0615,Ba,,13
11580,9_F,ATCTAAATACACGTGCGG,9,18,46.64826005855907,0.17574261144584824,44.444444444444436,3,0.16666666666666666,Ba_5_V35,F,9_R,GGTTTCTACTGTGTATGTTG,20,45.92034864664402,0.5521688004691967,40.0,3,0.15,R,S4,A0605,Ba,,3493
11778,9_F,ATCTAAATACACGTGCGG,9,18,46.64826005855907,0.34607831897317,44.444444444444436,3,0.16666666666666666,Ba_5_V3,F,9_R,GGTTTCTACTGTGTATGTTG,20,45.92034864664402,0.38183309294187495,40.0,3,0.15,R,S6,A0706,Ba,,6
11777,9_F,ATCTAAATACACGTGCGG,9,18,46.64826005855907,0.34607831897317,44.444444444444436,3,0.16666666666666666,Ba_5_V3,F,9_R,GGTTTCTACTGTGTATGTTG,20,45.92034864664402,0.38183309294187495,40.0,3,0.15,R,S5,A0615,Ba,,13
11776,9_F,ATCTAAATACACGTGCGG,9,18,46.64826005855907,0.34607831897317,44.444444444444436,3,0.16666666666666666,Ba_5_V3,F,9_R,GGTTTCTACTGTGTATGTTG,20,45.92034864664402,0.38183309294187495,40.0,3,0.15,R,S4,A0605,Ba,,3493
11779,9_F,ATCTAAATACACGTGCGG,9,18,46.64826005855907,0.34607831897317,44.444444444444436,3,0.16666666666666666,Ba_5_V3,F,9_R,GGTTTCTACTGTGTATGTTG,20,45.92034864664402,0.38183309294187495,40.0,3,0.15,R,S2,A0330,Ba,,8
11457,9_F,ATCTAAATACACGTGCGG,9,18,46.64826005855907,0.34607831897317,44.444444444444436,3,0.16666666666666666,Ba_4,F,9_R,GGTTTCTACTGTGTATGTTG,20,45.92034864664402,0.38183309294187495,40.0,3,0.15,R,S144,BA-BaBTSeqBa007P2--xx-xxx-xxxx-021-SF,Ba,,587
11387,9_F,ATCTAAATACACGTGCGG,9,18,46.64826005855907,0.34607831897317,44.444444444444436,3,0.16666666666666666,Ba_4,F,9_R,GGTTTCTACTGTGTATGTTG,20,45.92034864664402,0.38183309294187495,40.0,3,0.15,R,S2,A0330,Ba,,8
11386,9_F,ATCTAAATACACGTGCGG,9,18,46.64826005855907,0.34607831897317,44.444444444444436,3,0.16666666666666666,Ba_4,F,9_R,GGTTTCTACTGTGTATGTTG,20,45.92034864664402,0.38183309294187495,40.0,3,0.15,R,S6,A0706,Ba,,6
11385,9_F,ATCTAAATACACGTGCGG,9,18,46.64826005855907,0.34607831897317,44.444444444444436,3,0.16666666666666666,Ba_4,F,9_R,GGTTTCTACTGTGTATGTTG,20,45.92034864664402,0.38183309294187495,40.0,3,0.15,R,S5,A0615,Ba,,13
11384,9_F,ATCTAAATACACGTGCGG,9,18,46.64826005855907,0.34607831897317,44.444444444444436,3,0.16666666666666666,Ba_4,F,9_R,GGTTTCTACTGTGTATGTTG,20,45.92034864664402,0.38183309294187495,40.0,3,0.15,R,S4,A0605,Ba,,3493
12045,9_F,ATCTAAATACACGTGCGG,9,18,46.64826005855907,0.5948035669565499,44.444444444444436,3,0.16666666666666666,Ba_6_V4,F,9_R,GGTTTCTACTGTGTATGTTG,20,45.92034864664402,1.3227149788715948,40.0,3,0.15,R,S144,BA-BaBTSeqBa007P2--xx-xxx-xxxx-021-SF,Ba,,587
12171,9_F,GGCAATCGGCCACTGTT,9,17,52.20041080302713,0.16414650611220338,58.82352941176471,2,0.0,Ba_HighSH,F,9_R,AGTTCGTGGCGGACGTGAA,19,56.418525317431886,4.053968008292556,57.894736842105274,2,0.0,R,S2,A0330,Ba,,8
12169,9_F,GGCAATCGGCCACTGTT,9,17,52.20041080302713,0.16414650611220338,58.82352941176471,2,0.0,Ba_HighSH,F,9_R,AGTTCGTGGCGGACGTGAA,19,56.418525317431886,4.053968008292556,57.894736842105274,2,0.0,R,S5,A0615,Ba,,13
12168,9_F,GGCAATCGGCCACTGTT,9,17,52.20041080302713,0.16414650611220338,58.82352941176471,2,0.0,Ba_HighSH,F,9_R,AGTTCGTGGCGGACGTGAA,19,56.418525317431886,4.053968008292556,57.894736842105274,2,0.0,R,S4,A0605,Ba,,3493
12170,9_F,GGCAATCGGCCACTGTT,9,17,52.20041080302713,0.16414650611220338,58.82352941176471,2,0.0,Ba_HighSH,F,9_R,AGTTCGTGGCGGACGTGAA,19,56.418525317431886,4.053968008292556,57.894736842105274,2,0.0,R,S6,A0706,Ba,,6