,Primer_Name_L,Seq_L,Amplicon,Primer_Length_L,Tm_L,Delta Tm_L,GC_Content_L,Length_Longest_Homopolymer_L,Percent_Homopolymer_L,exp,flank_L,Primer_Name_R,Seq_R,Primer_Length_R,Tm_R,Delta Tm_R,GC_Content_R,Length_Longest_Homopolymer_R,Percent_Homopolymer_R,flank_R,sample_id,sample_name,species,strain,n_reads
86245,26_F,TTGCGGTGATACTATATTCC,26,20,46.558888612643564,0.2567068730576665,40.0,2,0.0,Ba_4,F,26_R,ACCACAAGTGAAGAAAGAA,19,46.054882652139604,0.2472990874462795,36.84210526315789,3,0.15789473684210525,R,S6,A0706,Ba,,55
86246,26_F,TTGCGGTGATACTATATTCC,26,20,46.558888612643564,0.2567068730576665,40.0,2,0.0,Ba_4,F,26_R,ACCACAAGTGAAGAAAGAA,19,46.054882652139604,0.2472990874462795,36.84210526315789,3,0.15789473684210525,R,S4,A0605,Ba,,7051
86458,26_F,TTGCGGTGATACTATATTCC,26,20,46.558888612643564,0.08637116553034474,40.0,2,0.0,Ba_5_V35,F,26_R,ACCACAAGTGAAGAAAGAA,19,46.054882652139604,0.4176347949736012,36.84210526315789,3,0.15789473684210525,R,S144,BA-BaBTSeqBa007P2--xx-xxx-xxxx-021-SF,Ba,,2469
86516,26_F,TTGCGGTGATACTATATTCC,26,20,46.558888612643564,0.2567068730576665,40.0,2,0.0,Ba_5_V3,F,26_R,ACCACAAGTGAAGAAAGAA,19,46.054882652139604,0.2472990874462795,36.84210526315789,3,0.15789473684210525,R,S5,A0615,Ba,,110
86517,26_F,TTGCGGTGATACTATATTCC,26,20,46.558888612643564,0.2567068730576665,40.0,2,0.0,Ba_5_V3,F,26_R,ACCACAAGTGAAGAAAGAA,19,46.054882652139604,0.2472990874462795,36.84210526315789,3,0.15789473684210525,R,S6,A0706,Ba,,55
86518,26_F,TTGCGGTGATACTATATTCC,26,20,46.558888612643564,0.2567068730576665,40.0,2,0.0,Ba_5_V3,F,26_R,ACCACAAGTGAAGAAAGAA,19,46.054882652139604,0.2472990874462795,36.84210526315789,3,0.15789473684210525,R,S4,A0605,Ba,,7051
86515,26_F,TTGCGGTGATACTATATTCC,26,20,46.558888612643564,0.2567068730576665,40.0,2,0.0,Ba_5_V3,F,26_R,ACCACAAGTGAAGAAAGAA,19,46.054882652139604,0.2472990874462795,36.84210526315789,3,0.15789473684210525,R,S2,A0330,Ba,,53
86379,26_F,TTGCGGTGATACTATATTCC,26,20,46.558888612643564,0.08637116553034474,40.0,2,0.0,Ba_5_V35,F,26_R,ACCACAAGTGAAGAAAGAA,19,46.054882652139604,0.4176347949736012,36.84210526315789,3,0.15789473684210525,R,S2,A0330,Ba,,53
86380,26_F,TTGCGGTGATACTATATTCC,26,20,46.558888612643564,0.08637116553034474,40.0,2,0.0,Ba_5_V35,F,26_R,ACCACAAGTGAAGAAAGAA,19,46.054882652139604,0.4176347949736012,36.84210526315789,3,0.15789473684210525,R,S5,A0615,Ba,,110
86381,26_F,TTGCGGTGATACTATATTCC,26,20,46.558888612643564,0.08637116553034474,40.0,2,0.0,Ba_5_V35,F,26_R,ACCACAAGTGAAGAAAGAA,19,46.054882652139604,0.4176347949736012,36.84210526315789,3,0.15789473684210525,R,S6,A0706,Ba,,55
86382,26_F,TTGCGGTGATACTATATTCC,26,20,46.558888612643564,0.08637116553034474,40.0,2,0.0,Ba_5_V35,F,26_R,ACCACAAGTGAAGAAAGAA,19,46.054882652139604,0.4176347949736012,36.84210526315789,3,0.15789473684210525,R,S4,A0605,Ba,,7051
87138,26_F,GCAACAACCGCAGACAGCG,26,19,57.30882020104207,5.883930448399383,63.157894736842096,2,0.0,Yp_1,F,26_R,ATAGTCTTTGCTGGATTCTGC,21,50.220418620280164,1.2044711323625281,42.857142857142854,3,0.14285714285714285,R,S144,BA-BaBTSeqBa007P2--xx-xxx-xxxx-021-SF,Ba,,2469
87195,26_F,ACTTCAGCAACAATCGCTTGTT,26,22,53.814851164629715,1.8176209441453253,40.90909090909091,2,0.0,Yp_2,F,26_R,TTTGCTGGATTCTGCTCACC,20,52.65868753119635,0.6614573107119455,50.0,3,0.15,R,S2,A0330,Ba,,53
87196,26_F,ACTTCAGCAACAATCGCTTGTT,26,22,53.814851164629715,1.8176209441453253,40.90909090909091,2,0.0,Yp_2,F,26_R,TTTGCTGGATTCTGCTCACC,20,52.65868753119635,0.6614573107119455,50.0,3,0.15,R,S5,A0615,Ba,,110
87197,26_F,ACTTCAGCAACAATCGCTTGTT,26,22,53.814851164629715,1.8176209441453253,40.90909090909091,2,0.0,Yp_2,F,26_R,TTTGCTGGATTCTGCTCACC,20,52.65868753119635,0.6614573107119455,50.0,3,0.15,R,S6,A0706,Ba,,55
87198,26_F,ACTTCAGCAACAATCGCTTGTT,26,22,53.814851164629715,1.8176209441453253,40.90909090909091,2,0.0,Yp_2,F,26_R,TTTGCTGGATTCTGCTCACC,20,52.65868753119635,0.6614573107119455,50.0,3,0.15,R,S4,A0605,Ba,,7051
87059,26_F,GCAACAACCGCAGACAGCG,26,19,57.30882020104207,5.883930448399383,63.157894736842096,2,0.0,Yp_1,F,26_R,ATAGTCTTTGCTGGATTCTGC,21,50.220418620280164,1.2044711323625281,42.857142857142854,3,0.14285714285714285,R,S2,A0330,Ba,,53
87060,26_F,GCAACAACCGCAGACAGCG,26,19,57.30882020104207,5.883930448399383,63.157894736842096,2,0.0,Yp_1,F,26_R,ATAGTCTTTGCTGGATTCTGC,21,50.220418620280164,1.2044711323625281,42.857142857142854,3,0.14285714285714285,R,S5,A0615,Ba,,110
87061,26_F,GCAACAACCGCAGACAGCG,26,19,57.30882020104207,5.883930448399383,63.157894736842096,2,0.0,Yp_1,F,26_R,ATAGTCTTTGCTGGATTCTGC,21,50.220418620280164,1.2044711323625281,42.857142857142854,3,0.14285714285714285,R,S6,A0706,Ba,,55
87062,26_F,GCAACAACCGCAGACAGCG,26,19,57.30882020104207,5.883930448399383,63.157894736842096,2,0.0,Yp_1,F,26_R,ATAGTCTTTGCTGGATTCTGC,21,50.220418620280164,1.2044711323625281,42.857142857142854,3,0.14285714285714285,R,S4,A0605,Ba,,7051
86107,26_F,TTGCGGTGATACTATATTCC,26,20,46.558888612643564,1.7225804868865566,40.0,2,0.0,Ba_3,F,26_R,ACCACAAGTGAAGAAAGAA,19,46.054882652139604,1.2185745263826109,36.84210526315789,3,0.15789473684210525,R,S2,A0330,Ba,,53
86108,26_F,TTGCGGTGATACTATATTCC,26,20,46.558888612643564,1.7225804868865566,40.0,2,0.0,Ba_3,F,26_R,ACCACAAGTGAAGAAAGAA,19,46.054882652139604,1.2185745263826109,36.84210526315789,3,0.15789473684210525,R,S5,A0615,Ba,,110
86109,26_F,TTGCGGTGATACTATATTCC,26,20,46.558888612643564,1.7225804868865566,40.0,2,0.0,Ba_3,F,26_R,ACCACAAGTGAAGAAAGAA,19,46.054882652139604,1.2185745263826109,36.84210526315789,3,0.15789473684210525,R,S6,A0706,Ba,,55
86110,26_F,TTGCGGTGATACTATATTCC,26,20,46.558888612643564,1.7225804868865566,40.0,2,0.0,Ba_3,F,26_R,ACCACAAGTGAAGAAAGAA,19,46.054882652139604,1.2185745263826109,36.84210526315789,3,0.15789473684210525,R,S4,A0605,Ba,,7051
87274,26_F,ACTTCAGCAACAATCGCTTGTT,26,22,53.814851164629715,1.8176209441453253,40.90909090909091,2,0.0,Yp_2,F,26_R,TTTGCTGGATTCTGCTCACC,20,52.65868753119635,0.6614573107119455,50.0,3,0.15,R,S144,BA-BaBTSeqBa007P2--xx-xxx-xxxx-021-SF,Ba,,2469
86050,26_F,TTGCGGTGATACTATATTCC,26,20,46.558888612643564,1.7225804868865566,40.0,2,0.0,Ba_2,F,26_R,ACCACAAGTGAAGAAAGAA,19,46.054882652139604,1.2185745263826109,36.84210526315789,3,0.15789473684210525,R,S144,BA-BaBTSeqBa007P2--xx-xxx-xxxx-021-SF,Ba,,2469
87002,26_F,GCAACAACCGCAGACAGCG,26,19,57.30882020104207,6.1426085463579545,63.157894736842096,2,0.0,Yp_1_V2,F,26_R,ATAGTCTTTGCTGGATTCTGC,21,50.220418620280164,0.9457930344039552,42.857142857142854,3,0.14285714285714285,R,S144,BA-BaBTSeqBa007P2--xx-xxx-xxxx-021-SF,Ba,,2469
85971,26_F,TTGCGGTGATACTATATTCC,26,20,46.558888612643564,1.7225804868865566,40.0,2,0.0,Ba_2,F,26_R,ACCACAAGTGAAGAAAGAA,19,46.054882652139604,1.2185745263826109,36.84210526315789,3,0.15789473684210525,R,S2,A0330,Ba,,53
85972,26_F,TTGCGGTGATACTATATTCC,26,20,46.558888612643564,1.7225804868865566,40.0,2,0.0,Ba_2,F,26_R,ACCACAAGTGAAGAAAGAA,19,46.054882652139604,1.2185745263826109,36.84210526315789,3,0.15789473684210525,R,S5,A0615,Ba,,110
85973,26_F,TTGCGGTGATACTATATTCC,26,20,46.558888612643564,1.7225804868865566,40.0,2,0.0,Ba_2,F,26_R,ACCACAAGTGAAGAAAGAA,19,46.054882652139604,1.2185745263826109,36.84210526315789,3,0.15789473684210525,R,S6,A0706,Ba,,55
85974,26_F,TTGCGGTGATACTATATTCC,26,20,46.558888612643564,1.7225804868865566,40.0,2,0.0,Ba_2,F,26_R,ACCACAAGTGAAGAAAGAA,19,46.054882652139604,1.2185745263826109,36.84210526315789,3,0.15789473684210525,R,S4,A0605,Ba,,7051
86866,26_F,TTGCGGTGATACTATATTCC,26,20,46.558888612643564,0.6562350480990561,40.0,2,0.0,Ba_V45,F,26_R,ACCACAAGTGAAGAAAGAA,19,46.054882652139604,1.160241008603002,36.84210526315789,3,0.15789473684210525,R,S144,BA-BaBTSeqBa007P2--xx-xxx-xxxx-021-SF,Ba,,2469
86926,26_F,GCAACAACCGCAGACAGCG,26,19,57.30882020104207,6.1426085463579545,63.157894736842096,2,0.0,Yp_1_V2,F,26_R,ATAGTCTTTGCTGGATTCTGC,21,50.220418620280164,0.9457930344039552,42.857142857142854,3,0.14285714285714285,R,S4,A0605,Ba,,7051
86925,26_F,GCAACAACCGCAGACAGCG,26,19,57.30882020104207,6.1426085463579545,63.157894736842096,2,0.0,Yp_1_V2,F,26_R,ATAGTCTTTGCTGGATTCTGC,21,50.220418620280164,0.9457930344039552,42.857142857142854,3,0.14285714285714285,R,S6,A0706,Ba,,55
86924,26_F,GCAACAACCGCAGACAGCG,26,19,57.30882020104207,6.1426085463579545,63.157894736842096,2,0.0,Yp_1_V2,F,26_R,ATAGTCTTTGCTGGATTCTGC,21,50.220418620280164,0.9457930344039552,42.857142857142854,3,0.14285714285714285,R,S5,A0615,Ba,,110
86923,26_F,GCAACAACCGCAGACAGCG,26,19,57.30882020104207,6.1426085463579545,63.157894736842096,2,0.0,Yp_1_V2,F,26_R,ATAGTCTTTGCTGGATTCTGC,21,50.220418620280164,0.9457930344039552,42.857142857142854,3,0.14285714285714285,R,S2,A0330,Ba,,53
86651,26_F,GATACATTTGGCGACACT,26,18,46.766866949704145,0.4761966758114724,44.444444444444436,3,0.16666666666666666,Ba_6_V4,F,26_R,AGATAATATAGTATCACCGCAAGT,24,49.14382015829296,1.9007565327773437,33.33333333333333,2,0.0,R,S2,A0330,Ba,,53
86652,26_F,GATACATTTGGCGACACT,26,18,46.766866949704145,0.4761966758114724,44.444444444444436,3,0.16666666666666666,Ba_6_V4,F,26_R,AGATAATATAGTATCACCGCAAGT,24,49.14382015829296,1.9007565327773437,33.33333333333333,2,0.0,R,S5,A0615,Ba,,110
86653,26_F,GATACATTTGGCGACACT,26,18,46.766866949704145,0.4761966758114724,44.444444444444436,3,0.16666666666666666,Ba_6_V4,F,26_R,AGATAATATAGTATCACCGCAAGT,24,49.14382015829296,1.9007565327773437,33.33333333333333,2,0.0,R,S6,A0706,Ba,,55
86654,26_F,GATACATTTGGCGACACT,26,18,46.766866949704145,0.4761966758114724,44.444444444444436,3,0.16666666666666666,Ba_6_V4,F,26_R,AGATAATATAGTATCACCGCAAGT,24,49.14382015829296,1.9007565327773437,33.33333333333333,2,0.0,R,S4,A0605,Ba,,7051
86730,26_F,GATACATTTGGCGACACT,26,18,46.766866949704145,0.4761966758114724,44.444444444444436,3,0.16666666666666666,Ba_6_V4,F,26_R,AGATAATATAGTATCACCGCAAGT,24,49.14382015829296,1.9007565327773437,33.33333333333333,2,0.0,R,S144,BA-BaBTSeqBa007P2--xx-xxx-xxxx-021-SF,Ba,,2469
86594,26_F,TTGCGGTGATACTATATTCC,26,20,46.558888612643564,0.2567068730576665,40.0,2,0.0,Ba_5_V3,F,26_R,ACCACAAGTGAAGAAAGAA,19,46.054882652139604,0.2472990874462795,36.84210526315789,3,0.15789473684210525,R,S144,BA-BaBTSeqBa007P2--xx-xxx-xxxx-021-SF,Ba,,2469
85914,26_F,TTGCGGTGATACTATATTCC,26,20,46.558888612643564,1.7225804868865566,40.0,2,0.0,Ba_1,F,26_R,ACCACAAGTGAAGAAAGAA,19,46.054882652139604,1.2185745263826109,36.84210526315789,3,0.15789473684210525,R,S144,BA-BaBTSeqBa007P2--xx-xxx-xxxx-021-SF,Ba,,2469
86787,26_F,TTGCGGTGATACTATATTCC,26,20,46.558888612643564,0.6562350480990561,40.0,2,0.0,Ba_V45,F,26_R,ACCACAAGTGAAGAAAGAA,19,46.054882652139604,1.160241008603002,36.84210526315789,3,0.15789473684210525,R,S2,A0330,Ba,,53
86788,26_F,TTGCGGTGATACTATATTCC,26,20,46.558888612643564,0.6562350480990561,40.0,2,0.0,Ba_V45,F,26_R,ACCACAAGTGAAGAAAGAA,19,46.054882652139604,1.160241008603002,36.84210526315789,3,0.15789473684210525,R,S5,A0615,Ba,,110
86789,26_F,TTGCGGTGATACTATATTCC,26,20,46.558888612643564,0.6562350480990561,40.0,2,0.0,Ba_V45,F,26_R,ACCACAAGTGAAGAAAGAA,19,46.054882652139604,1.160241008603002,36.84210526315789,3,0.15789473684210525,R,S6,A0706,Ba,,55
86790,26_F,TTGCGGTGATACTATATTCC,26,20,46.558888612643564,0.6562350480990561,40.0,2,0.0,Ba_V45,F,26_R,ACCACAAGTGAAGAAAGAA,19,46.054882652139604,1.160241008603002,36.84210526315789,3,0.15789473684210525,R,S4,A0605,Ba,,7051
85836,26_F,TTGCGGTGATACTATATTCC,26,20,46.558888612643564,1.7225804868865566,40.0,2,0.0,Ba_1,F,26_R,ACCACAAGTGAAGAAAGAA,19,46.054882652139604,1.2185745263826109,36.84210526315789,3,0.15789473684210525,R,S5,A0615,Ba,,110
85837,26_F,TTGCGGTGATACTATATTCC,26,20,46.558888612643564,1.7225804868865566,40.0,2,0.0,Ba_1,F,26_R,ACCACAAGTGAAGAAAGAA,19,46.054882652139604,1.2185745263826109,36.84210526315789,3,0.15789473684210525,R,S6,A0706,Ba,,55
85835,26_F,TTGCGGTGATACTATATTCC,26,20,46.558888612643564,1.7225804868865566,40.0,2,0.0,Ba_1,F,26_R,ACCACAAGTGAAGAAAGAA,19,46.054882652139604,1.2185745263826109,36.84210526315789,3,0.15789473684210525,R,S2,A0330,Ba,,53
85838,26_F,TTGCGGTGATACTATATTCC,26,20,46.558888612643564,1.7225804868865566,40.0,2,0.0,Ba_1,F,26_R,ACCACAAGTGAAGAAAGAA,19,46.054882652139604,1.2185745263826109,36.84210526315789,3,0.15789473684210525,R,S4,A0605,Ba,,7051
32880,27_F,GGTTCAGCCTATAACAGTTCCTATTC,27,26,53.343553811778456,6.12843015103585,42.307692307692314,2,0.0,Ba_V45,F,27_R,TTATCAGCAGCAGGTTTAGTTGC,23,53.70249636288287,6.487372702140256,43.47826086956522,3,0.13043478260869565,R,S144,BA-BaBTSeqBa007P2--xx-xxx-xxxx-021-SF,Ba,,414
32804,27_F,GGTTCAGCCTATAACAGTTCCTATTC,27,26,53.343553811778456,6.12843015103585,42.307692307692314,2,0.0,Ba_V45,F,27_R,TTATCAGCAGCAGGTTTAGTTGC,23,53.70249636288287,6.487372702140256,43.47826086956522,3,0.13043478260869565,R,S6,A0706,Ba,,13
32803,27_F,GGTTCAGCCTATAACAGTTCCTATTC,27,26,53.343553811778456,6.12843015103585,42.307692307692314,2,0.0,Ba_V45,F,27_R,TTATCAGCAGCAGGTTTAGTTGC,23,53.70249636288287,6.487372702140256,43.47826086956522,3,0.13043478260869565,R,S2,A0330,Ba,,21
32802,27_F,GGTTCAGCCTATAACAGTTCCTATTC,27,26,53.343553811778456,6.12843015103585,42.307692307692314,2,0.0,Ba_V45,F,27_R,TTATCAGCAGCAGGTTTAGTTGC,23,53.70249636288287,6.487372702140256,43.47826086956522,3,0.13043478260869565,R,S5,A0615,Ba,,28
32801,27_F,GGTTCAGCCTATAACAGTTCCTATTC,27,26,53.343553811778456,6.12843015103585,42.307692307692314,2,0.0,Ba_V45,F,27_R,TTATCAGCAGCAGGTTTAGTTGC,23,53.70249636288287,6.487372702140256,43.47826086956522,3,0.13043478260869565,R,S4,A0605,Ba,,3826
33212,27_F,TACGCACATTATCATGGAAGTTG,27,23,51.46363421716104,0.5335960033233604,39.130434782608695,2,0.0,Yp_2,F,27_R,CCCAACACTGATAAACGATAT,21,47.6534820187926,4.343748201691787,38.095238095238095,3,0.2857142857142857,R,S6,A0706,Ba,,13
33211,27_F,TACGCACATTATCATGGAAGTTG,27,23,51.46363421716104,0.5335960033233604,39.130434782608695,2,0.0,Yp_2,F,27_R,CCCAACACTGATAAACGATAT,21,47.6534820187926,4.343748201691787,38.095238095238095,3,0.2857142857142857,R,S2,A0330,Ba,,21
33210,27_F,TACGCACATTATCATGGAAGTTG,27,23,51.46363421716104,0.5335960033233604,39.130434782608695,2,0.0,Yp_2,F,27_R,CCCAACACTGATAAACGATAT,21,47.6534820187926,4.343748201691787,38.095238095238095,3,0.2857142857142857,R,S5,A0615,Ba,,28
33209,27_F,TACGCACATTATCATGGAAGTTG,27,23,51.46363421716104,0.5335960033233604,39.130434782608695,2,0.0,Yp_2,F,27_R,CCCAACACTGATAAACGATAT,21,47.6534820187926,4.343748201691787,38.095238095238095,3,0.2857142857142857,R,S4,A0605,Ba,,3826
33152,27_F,CGATGTATTAGGTGCGGCG,27,19,53.314039307323405,1.889149554680728,57.894736842105274,2,0.0,Yp_1,F,27_R,CCCAACACTGATAAACGATA,20,47.01579928109163,4.409090471551053,40.0,3,0.3,R,S144,BA-BaBTSeqBa007P2--xx-xxx-xxxx-021-SF,Ba,,414
33288,27_F,TACGCACATTATCATGGAAGTTG,27,23,51.46363421716104,0.5335960033233604,39.130434782608695,2,0.0,Yp_2,F,27_R,CCCAACACTGATAAACGATAT,21,47.6534820187926,4.343748201691787,38.095238095238095,3,0.2857142857142857,R,S144,BA-BaBTSeqBa007P2--xx-xxx-xxxx-021-SF,Ba,,414
32940,27_F,CGATGTATTAGGTGCGGCG,27,19,53.314039307323405,2.1478276526393003,57.894736842105274,2,0.0,Yp_1_V2,F,27_R,CCCAACACTGATAAACGATA,20,47.01579928109163,4.150412373592482,40.0,3,0.3,R,S6,A0706,Ba,,13
32939,27_F,CGATGTATTAGGTGCGGCG,27,19,53.314039307323405,2.1478276526393003,57.894736842105274,2,0.0,Yp_1_V2,F,27_R,CCCAACACTGATAAACGATA,20,47.01579928109163,4.150412373592482,40.0,3,0.3,R,S2,A0330,Ba,,21
32938,27_F,CGATGTATTAGGTGCGGCG,27,19,53.314039307323405,2.1478276526393003,57.894736842105274,2,0.0,Yp_1_V2,F,27_R,CCCAACACTGATAAACGATA,20,47.01579928109163,4.150412373592482,40.0,3,0.3,R,S5,A0615,Ba,,28
32937,27_F,CGATGTATTAGGTGCGGCG,27,19,53.314039307323405,2.1478276526393003,57.894736842105274,2,0.0,Yp_1_V2,F,27_R,CCCAACACTGATAAACGATA,20,47.01579928109163,4.150412373592482,40.0,3,0.3,R,S4,A0605,Ba,,3826
33076,27_F,CGATGTATTAGGTGCGGCG,27,19,53.314039307323405,1.889149554680728,57.894736842105274,2,0.0,Yp_1,F,27_R,CCCAACACTGATAAACGATA,20,47.01579928109163,4.409090471551053,40.0,3,0.3,R,S6,A0706,Ba,,13
33075,27_F,CGATGTATTAGGTGCGGCG,27,19,53.314039307323405,1.889149554680728,57.894736842105274,2,0.0,Yp_1,F,27_R,CCCAACACTGATAAACGATA,20,47.01579928109163,4.409090471551053,40.0,3,0.3,R,S2,A0330,Ba,,21
33074,27_F,CGATGTATTAGGTGCGGCG,27,19,53.314039307323405,1.889149554680728,57.894736842105274,2,0.0,Yp_1,F,27_R,CCCAACACTGATAAACGATA,20,47.01579928109163,4.409090471551053,40.0,3,0.3,R,S5,A0615,Ba,,28
33073,27_F,CGATGTATTAGGTGCGGCG,27,19,53.314039307323405,1.889149554680728,57.894736842105274,2,0.0,Yp_1,F,27_R,CCCAACACTGATAAACGATA,20,47.01579928109163,4.409090471551053,40.0,3,0.3,R,S4,A0605,Ba,,3826
33016,27_F,CGATGTATTAGGTGCGGCG,27,19,53.314039307323405,2.1478276526393003,57.894736842105274,2,0.0,Yp_1_V2,F,27_R,CCCAACACTGATAAACGATA,20,47.01579928109163,4.150412373592482,40.0,3,0.3,R,S144,BA-BaBTSeqBa007P2--xx-xxx-xxxx-021-SF,Ba,,414
32124,27_F,CAAGTGCAAGATCAAGTA,27,18,43.87786169633915,0.9584464294178474,38.888888888888886,2,0.0,Ba_3,F,27_R,GATTTTGTTCTGGGTTATC,19,43.231366926027825,1.6049411997291827,36.84210526315789,4,0.3684210526315789,R,S6,A0706,Ba,,13
32123,27_F,CAAGTGCAAGATCAAGTA,27,18,43.87786169633915,0.9584464294178474,38.888888888888886,2,0.0,Ba_3,F,27_R,GATTTTGTTCTGGGTTATC,19,43.231366926027825,1.6049411997291827,36.84210526315789,4,0.3684210526315789,R,S2,A0330,Ba,,21
32122,27_F,CAAGTGCAAGATCAAGTA,27,18,43.87786169633915,0.9584464294178474,38.888888888888886,2,0.0,Ba_3,F,27_R,GATTTTGTTCTGGGTTATC,19,43.231366926027825,1.6049411997291827,36.84210526315789,4,0.3684210526315789,R,S5,A0615,Ba,,28
32121,27_F,CAAGTGCAAGATCAAGTA,27,18,43.87786169633915,0.9584464294178474,38.888888888888886,2,0.0,Ba_3,F,27_R,GATTTTGTTCTGGGTTATC,19,43.231366926027825,1.6049411997291827,36.84210526315789,4,0.3684210526315789,R,S4,A0605,Ba,,3826
32260,27_F,CAAGTGCAAGATCAAGTA,27,18,43.87786169633915,2.4243200432467376,38.888888888888886,2,0.0,Ba_4,F,27_R,GATTTTGTTCTGGGTTATC,19,43.231366926027825,3.070814813558073,36.84210526315789,4,0.3684210526315789,R,S6,A0706,Ba,,13
32259,27_F,CAAGTGCAAGATCAAGTA,27,18,43.87786169633915,2.4243200432467376,38.888888888888886,2,0.0,Ba_4,F,27_R,GATTTTGTTCTGGGTTATC,19,43.231366926027825,3.070814813558073,36.84210526315789,4,0.3684210526315789,R,S2,A0330,Ba,,21
32258,27_F,CAAGTGCAAGATCAAGTA,27,18,43.87786169633915,2.4243200432467376,38.888888888888886,2,0.0,Ba_4,F,27_R,GATTTTGTTCTGGGTTATC,19,43.231366926027825,3.070814813558073,36.84210526315789,4,0.3684210526315789,R,S5,A0615,Ba,,28
32257,27_F,CAAGTGCAAGATCAAGTA,27,18,43.87786169633915,2.4243200432467376,38.888888888888886,2,0.0,Ba_4,F,27_R,GATTTTGTTCTGGGTTATC,19,43.231366926027825,3.070814813558073,36.84210526315789,4,0.3684210526315789,R,S4,A0605,Ba,,3826
32200,27_F,CAAGTGCAAGATCAAGTA,27,18,43.87786169633915,0.9584464294178474,38.888888888888886,2,0.0,Ba_3,F,27_R,GATTTTGTTCTGGGTTATC,19,43.231366926027825,1.6049411997291827,36.84210526315789,4,0.3684210526315789,R,S144,BA-BaBTSeqBa007P2--xx-xxx-xxxx-021-SF,Ba,,414
31928,27_F,CAAGTGCAAGATCAAGTA,27,18,43.87786169633915,0.9584464294178474,38.888888888888886,2,0.0,Ba_1,F,27_R,GATTTTGTTCTGGGTTATC,19,43.231366926027825,1.6049411997291827,36.84210526315789,4,0.3684210526315789,R,S144,BA-BaBTSeqBa007P2--xx-xxx-xxxx-021-SF,Ba,,414
31852,27_F,CAAGTGCAAGATCAAGTA,27,18,43.87786169633915,0.9584464294178474,38.888888888888886,2,0.0,Ba_1,F,27_R,GATTTTGTTCTGGGTTATC,19,43.231366926027825,1.6049411997291827,36.84210526315789,4,0.3684210526315789,R,S6,A0706,Ba,,13
31851,27_F,CAAGTGCAAGATCAAGTA,27,18,43.87786169633915,0.9584464294178474,38.888888888888886,2,0.0,Ba_1,F,27_R,GATTTTGTTCTGGGTTATC,19,43.231366926027825,1.6049411997291827,36.84210526315789,4,0.3684210526315789,R,S2,A0330,Ba,,21
31850,27_F,CAAGTGCAAGATCAAGTA,27,18,43.87786169633915,0.9584464294178474,38.888888888888886,2,0.0,Ba_1,F,27_R,GATTTTGTTCTGGGTTATC,19,43.231366926027825,1.6049411997291827,36.84210526315789,4,0.3684210526315789,R,S5,A0615,Ba,,28
31849,27_F,CAAGTGCAAGATCAAGTA,27,18,43.87786169633915,0.9584464294178474,38.888888888888886,2,0.0,Ba_1,F,27_R,GATTTTGTTCTGGGTTATC,19,43.231366926027825,1.6049411997291827,36.84210526315789,4,0.3684210526315789,R,S4,A0605,Ba,,3826