,Primer_Name_L,Seq_L,Amplicon,Primer_Length_L,Tm_L,Delta Tm_L,GC_Content_L,Length_Longest_Homopolymer_L,Percent_Homopolymer_L,exp,flank_L,Primer_Name_R,Seq_R,Primer_Length_R,Tm_R,Delta Tm_R,GC_Content_R,Length_Longest_Homopolymer_R,Percent_Homopolymer_R,flank_R,sample_id,sample_name,species,strain,n_reads
41856,11_F,CCTGCTAAAAAGAAACGAATT,11,21,47.3172650641265,2.480956938369502,33.33333333333333,5,0.3809523809523809,Ba_2,F,11_R,TATACCTTCTATACTCATGTTAA,23,43.52213947547989,1.3141686502771108,26.08695652173913,2,0.0,R,S144,BA-BaBTSeqBa007P2--xx-xxx-xxxx-021-SF,Ba,,14
43060,11_F,CGCATAGTGGTGATCGACGGTGCG,11,24,62.19338428912811,11.027172634444009,62.5,2,0.0,Yp_1_V2,F,11_R,TTACTGGATGCTGAGTCACAG,21,51.58347242615918,0.4172607714750639,47.61904761904761,2,0.0,R,S6,A0706,Ba,,0
43061,11_F,CGCATAGTGGTGATCGACGGTGCG,11,24,62.19338428912811,11.027172634444009,62.5,2,0.0,Yp_1_V2,F,11_R,TTACTGGATGCTGAGTCACAG,21,51.58347242615918,0.4172607714750639,47.61904761904761,2,0.0,R,S5,A0615,Ba,,0
43062,11_F,CGCATAGTGGTGATCGACGGTGCG,11,24,62.19338428912811,11.027172634444009,62.5,2,0.0,Yp_1_V2,F,11_R,TTACTGGATGCTGAGTCACAG,21,51.58347242615918,0.4172607714750639,47.61904761904761,2,0.0,R,S2,A0330,Ba,,0
43063,11_F,CGCATAGTGGTGATCGACGGTGCG,11,24,62.19338428912811,11.027172634444009,62.5,2,0.0,Yp_1_V2,F,11_R,TTACTGGATGCTGAGTCACAG,21,51.58347242615918,0.4172607714750639,47.61904761904761,2,0.0,R,S4,A0605,Ba,,160
43125,11_F,CGCATAGTGGTGATCGACGGTGCG,11,24,62.19338428912811,11.027172634444009,62.5,2,0.0,Yp_1_V2,F,11_R,TTACTGGATGCTGAGTCACAG,21,51.58347242615918,0.4172607714750639,47.61904761904761,2,0.0,R,S144,BA-BaBTSeqBa007P2--xx-xxx-xxxx-021-SF,Ba,,14
42919,11_F,TATTAGTCTATGAGCAGCCAGCAAA,11,25,54.15391600229725,3.8811401628872417,40.0,3,0.12,Ft_2,F,11_R,AATGCCAAACGCCAGCTAA,19,52.56900526056625,2.296229421156248,47.368421052631575,3,0.15789473684210525,R,S6,A0706,Ba,,0
42920,11_F,TATTAGTCTATGAGCAGCCAGCAAA,11,25,54.15391600229725,3.8811401628872417,40.0,3,0.12,Ft_2,F,11_R,AATGCCAAACGCCAGCTAA,19,52.56900526056625,2.296229421156248,47.368421052631575,3,0.15789473684210525,R,S5,A0615,Ba,,0
42921,11_F,TATTAGTCTATGAGCAGCCAGCAAA,11,25,54.15391600229725,3.8811401628872417,40.0,3,0.12,Ft_2,F,11_R,AATGCCAAACGCCAGCTAA,19,52.56900526056625,2.296229421156248,47.368421052631575,3,0.15789473684210525,R,S2,A0330,Ba,,0
42922,11_F,TATTAGTCTATGAGCAGCCAGCAAA,11,25,54.15391600229725,3.8811401628872417,40.0,3,0.12,Ft_2,F,11_R,AATGCCAAACGCCAGCTAA,19,52.56900526056625,2.296229421156248,47.368421052631575,3,0.15789473684210525,R,S4,A0605,Ba,,160
42984,11_F,TATTAGTCTATGAGCAGCCAGCAAA,11,25,54.15391600229725,3.8811401628872417,40.0,3,0.12,Ft_2,F,11_R,AATGCCAAACGCCAGCTAA,19,52.56900526056625,2.296229421156248,47.368421052631575,3,0.15789473684210525,R,S144,BA-BaBTSeqBa007P2--xx-xxx-xxxx-021-SF,Ba,,14
43266,11_F,CGCATAGTGGTGATCGACGGTGCG,11,24,62.19338428912811,10.768494536485434,62.5,2,0.0,Yp_1,F,11_R,TTACTGGATGCTGAGTCACAG,21,51.58347242615918,0.15858267351649147,47.61904761904761,2,0.0,R,S144,BA-BaBTSeqBa007P2--xx-xxx-xxxx-021-SF,Ba,,14
43344,11_F,AAGGCAACTTGCAACTCTT,11,19,49.732395248455866,2.2648349720285172,42.105263157894726,2,0.0,Yp_2,F,11_R,AGCGGATAACGTGGCGGTGA,20,58.51656746046972,6.519337239985339,60.0,2,0.0,R,S2,A0330,Ba,,0
43345,11_F,AAGGCAACTTGCAACTCTT,11,19,49.732395248455866,2.2648349720285172,42.105263157894726,2,0.0,Yp_2,F,11_R,AGCGGATAACGTGGCGGTGA,20,58.51656746046972,6.519337239985339,60.0,2,0.0,R,S4,A0605,Ba,,160
43342,11_F,AAGGCAACTTGCAACTCTT,11,19,49.732395248455866,2.2648349720285172,42.105263157894726,2,0.0,Yp_2,F,11_R,AGCGGATAACGTGGCGGTGA,20,58.51656746046972,6.519337239985339,60.0,2,0.0,R,S6,A0706,Ba,,0
43343,11_F,AAGGCAACTTGCAACTCTT,11,19,49.732395248455866,2.2648349720285172,42.105263157894726,2,0.0,Yp_2,F,11_R,AGCGGATAACGTGGCGGTGA,20,58.51656746046972,6.519337239985339,60.0,2,0.0,R,S5,A0615,Ba,,0
43201,11_F,CGCATAGTGGTGATCGACGGTGCG,11,24,62.19338428912811,10.768494536485434,62.5,2,0.0,Yp_1,F,11_R,TTACTGGATGCTGAGTCACAG,21,51.58347242615918,0.15858267351649147,47.61904761904761,2,0.0,R,S6,A0706,Ba,,0
43202,11_F,CGCATAGTGGTGATCGACGGTGCG,11,24,62.19338428912811,10.768494536485434,62.5,2,0.0,Yp_1,F,11_R,TTACTGGATGCTGAGTCACAG,21,51.58347242615918,0.15858267351649147,47.61904761904761,2,0.0,R,S5,A0615,Ba,,0
43203,11_F,CGCATAGTGGTGATCGACGGTGCG,11,24,62.19338428912811,10.768494536485434,62.5,2,0.0,Yp_1,F,11_R,TTACTGGATGCTGAGTCACAG,21,51.58347242615918,0.15858267351649147,47.61904761904761,2,0.0,R,S2,A0330,Ba,,0
43204,11_F,CGCATAGTGGTGATCGACGGTGCG,11,24,62.19338428912811,10.768494536485434,62.5,2,0.0,Yp_1,F,11_R,TTACTGGATGCTGAGTCACAG,21,51.58347242615918,0.15858267351649147,47.61904761904761,2,0.0,R,S4,A0605,Ba,,160
42561,11_F,GTCTTGAAAATATGTGTGGCA,11,21,49.005186687462405,1.7900630267197997,38.095238095238095,4,0.19047619047619047,Ba_V45,F,11_R,GAGTAAAAAGGAGGAAGA,18,42.126932024693296,5.0881916360493085,38.888888888888886,5,0.2777777777777778,R,S144,BA-BaBTSeqBa007P2--xx-xxx-xxxx-021-SF,Ba,,14
42637,11_F,CGGAGGTGAGCTAATTGCT,11,19,51.495039255648976,2.6387476554249574,52.631578947368425,2,0.0,Ft_1,F,11_R,CAAATGCCAAACGCCAGC,18,52.90283216279886,4.046540562574839,55.555555555555564,3,0.3333333333333333,R,S6,A0706,Ba,,0
42638,11_F,CGGAGGTGAGCTAATTGCT,11,19,51.495039255648976,2.6387476554249574,52.631578947368425,2,0.0,Ft_1,F,11_R,CAAATGCCAAACGCCAGC,18,52.90283216279886,4.046540562574839,55.555555555555564,3,0.3333333333333333,R,S5,A0615,Ba,,0
42639,11_F,CGGAGGTGAGCTAATTGCT,11,19,51.495039255648976,2.6387476554249574,52.631578947368425,2,0.0,Ft_1,F,11_R,CAAATGCCAAACGCCAGC,18,52.90283216279886,4.046540562574839,55.555555555555564,3,0.3333333333333333,R,S2,A0330,Ba,,0
42640,11_F,CGGAGGTGAGCTAATTGCT,11,19,51.495039255648976,2.6387476554249574,52.631578947368425,2,0.0,Ft_1,F,11_R,CAAATGCCAAACGCCAGC,18,52.90283216279886,4.046540562574839,55.555555555555564,3,0.3333333333333333,R,S4,A0605,Ba,,160
42497,11_F,GTCTTGAAAATATGTGTGGCA,11,21,49.005186687462405,1.7900630267197997,38.095238095238095,4,0.19047619047619047,Ba_V45,F,11_R,GAGTAAAAAGGAGGAAGA,18,42.126932024693296,5.0881916360493085,38.888888888888886,5,0.2777777777777778,R,S5,A0615,Ba,,0
42498,11_F,GTCTTGAAAATATGTGTGGCA,11,21,49.005186687462405,1.7900630267197997,38.095238095238095,4,0.19047619047619047,Ba_V45,F,11_R,GAGTAAAAAGGAGGAAGA,18,42.126932024693296,5.0881916360493085,38.888888888888886,5,0.2777777777777778,R,S2,A0330,Ba,,0
42499,11_F,GTCTTGAAAATATGTGTGGCA,11,21,49.005186687462405,1.7900630267197997,38.095238095238095,4,0.19047619047619047,Ba_V45,F,11_R,GAGTAAAAAGGAGGAAGA,18,42.126932024693296,5.0881916360493085,38.888888888888886,5,0.2777777777777778,R,S4,A0605,Ba,,160
42496,11_F,GTCTTGAAAATATGTGTGGCA,11,21,49.005186687462405,1.7900630267197997,38.095238095238095,4,0.19047619047619047,Ba_V45,F,11_R,GAGTAAAAAGGAGGAAGA,18,42.126932024693296,5.0881916360493085,38.888888888888886,5,0.2777777777777778,R,S6,A0706,Ba,,0
42781,11_F,TATTAGTCTATGAGCAGCCAGCAAA,11,25,54.15391600229725,4.096728158483359,40.0,3,0.12,Ft_2_V2,F,11_R,AATGCCAAACGCCAGCTAA,19,52.56900526056625,2.5118174167523653,47.368421052631575,3,0.15789473684210525,R,S4,A0605,Ba,,160
42843,11_F,TATTAGTCTATGAGCAGCCAGCAAA,11,25,54.15391600229725,4.096728158483359,40.0,3,0.12,Ft_2_V2,F,11_R,AATGCCAAACGCCAGCTAA,19,52.56900526056625,2.5118174167523653,47.368421052631575,3,0.15789473684210525,R,S144,BA-BaBTSeqBa007P2--xx-xxx-xxxx-021-SF,Ba,,14
42780,11_F,TATTAGTCTATGAGCAGCCAGCAAA,11,25,54.15391600229725,4.096728158483359,40.0,3,0.12,Ft_2_V2,F,11_R,AATGCCAAACGCCAGCTAA,19,52.56900526056625,2.5118174167523653,47.368421052631575,3,0.15789473684210525,R,S2,A0330,Ba,,0
42779,11_F,TATTAGTCTATGAGCAGCCAGCAAA,11,25,54.15391600229725,4.096728158483359,40.0,3,0.12,Ft_2_V2,F,11_R,AATGCCAAACGCCAGCTAA,19,52.56900526056625,2.5118174167523653,47.368421052631575,3,0.15789473684210525,R,S5,A0615,Ba,,0
42778,11_F,TATTAGTCTATGAGCAGCCAGCAAA,11,25,54.15391600229725,4.096728158483359,40.0,3,0.12,Ft_2_V2,F,11_R,AATGCCAAACGCCAGCTAA,19,52.56900526056625,2.5118174167523653,47.368421052631575,3,0.15789473684210525,R,S6,A0706,Ba,,0
42702,11_F,CGGAGGTGAGCTAATTGCT,11,19,51.495039255648976,2.6387476554249574,52.631578947368425,2,0.0,Ft_1,F,11_R,CAAATGCCAAACGCCAGC,18,52.90283216279886,4.046540562574839,55.555555555555564,3,0.3333333333333333,R,S144,BA-BaBTSeqBa007P2--xx-xxx-xxxx-021-SF,Ba,,14
42420,11_F,GTCTTGAAAATATGTGTGGCA,11,21,49.005186687462405,1.7621230619468022,38.095238095238095,4,0.19047619047619047,Ba_6_V4,F,11_R,GAGTAAAAAGGAGGAAGA,18,42.126932024693296,5.116131600822307,38.888888888888886,5,0.2777777777777778,R,S144,BA-BaBTSeqBa007P2--xx-xxx-xxxx-021-SF,Ba,,14
43407,11_F,AAGGCAACTTGCAACTCTT,11,19,49.732395248455866,2.2648349720285172,42.105263157894726,2,0.0,Yp_2,F,11_R,AGCGGATAACGTGGCGGTGA,20,58.51656746046972,6.519337239985339,60.0,2,0.0,R,S144,BA-BaBTSeqBa007P2--xx-xxx-xxxx-021-SF,Ba,,14
66654,12_F,TATGTTCAGCAGCCAACTTA,12,20,48.85533627238021,0.0009553278438048096,40.0,2,0.0,Ft_1,F,12_R,GCAGGAAGACCTATTGGT,18,47.68545742567892,1.1708341745450994,50.0,2,0.0,R,S2,A0330,Ba,,0
66655,12_F,TATGTTCAGCAGCCAACTTA,12,20,48.85533627238021,0.0009553278438048096,40.0,2,0.0,Ft_1,F,12_R,GCAGGAAGACCTATTGGT,18,47.68545742567892,1.1708341745450994,50.0,2,0.0,R,S4,A0605,Ba,,82
66656,12_F,TATGTTCAGCAGCCAACTTA,12,20,48.85533627238021,0.0009553278438048096,40.0,2,0.0,Ft_1,F,12_R,GCAGGAAGACCTATTGGT,18,47.68545742567892,1.1708341745450994,50.0,2,0.0,R,S5,A0615,Ba,,0
66657,12_F,TATGTTCAGCAGCCAACTTA,12,20,48.85533627238021,0.0009553278438048096,40.0,2,0.0,Ft_1,F,12_R,GCAGGAAGACCTATTGGT,18,47.68545742567892,1.1708341745450994,50.0,2,0.0,R,S6,A0706,Ba,,0
66534,12_F,GCGAAGATGAAGGATGAGTCTT,12,22,52.38534995542665,5.170226294684035,45.45454545454545,2,0.0,Ba_V45,F,12_R,GGATTGGTCATTGGTGGTATTT,22,50.724271394865006,3.5091477341224007,40.90909090909091,3,0.13636363636363635,R,S144,BA-BaBTSeqBa007P2--xx-xxx-xxxx-021-SF,Ba,,526
66722,12_F,TATGTTCAGCAGCCAACTTA,12,20,48.85533627238021,0.0009553278438048096,40.0,2,0.0,Ft_1,F,12_R,GCAGGAAGACCTATTGGT,18,47.68545742567892,1.1708341745450994,50.0,2,0.0,R,S144,BA-BaBTSeqBa007P2--xx-xxx-xxxx-021-SF,Ba,,526
66842,12_F,TATGTTCAGCAGCCAACTTA,12,20,48.85533627238021,1.2018515714336786,40.0,2,0.0,Ft_2_V2,F,12_R,GCAGGAAGACCTATTGGT,18,47.68545742567892,2.371730418134973,50.0,2,0.0,R,S2,A0330,Ba,,0
66843,12_F,TATGTTCAGCAGCCAACTTA,12,20,48.85533627238021,1.2018515714336786,40.0,2,0.0,Ft_2_V2,F,12_R,GCAGGAAGACCTATTGGT,18,47.68545742567892,2.371730418134973,50.0,2,0.0,R,S4,A0605,Ba,,82
66844,12_F,TATGTTCAGCAGCCAACTTA,12,20,48.85533627238021,1.2018515714336786,40.0,2,0.0,Ft_2_V2,F,12_R,GCAGGAAGACCTATTGGT,18,47.68545742567892,2.371730418134973,50.0,2,0.0,R,S5,A0615,Ba,,0
66845,12_F,TATGTTCAGCAGCCAACTTA,12,20,48.85533627238021,1.2018515714336786,40.0,2,0.0,Ft_2_V2,F,12_R,GCAGGAAGACCTATTGGT,18,47.68545742567892,2.371730418134973,50.0,2,0.0,R,S6,A0706,Ba,,0
66910,12_F,TATGTTCAGCAGCCAACTTA,12,20,48.85533627238021,1.2018515714336786,40.0,2,0.0,Ft_2_V2,F,12_R,GCAGGAAGACCTATTGGT,18,47.68545742567892,2.371730418134973,50.0,2,0.0,R,S144,BA-BaBTSeqBa007P2--xx-xxx-xxxx-021-SF,Ba,,526
66278,12_F,TGAAGCGAAGATGAAGGATGAGTCT,12,25,55.837450285957686,5.122365679154897,44.0,2,0.0,Ba_OkX,F,12_R,ACAGGATTGGTCATTGGTGGTA,22,53.3219996435895,2.6069150367867024,45.45454545454545,2,0.0,R,S2,A0330,Ba,,0
66279,12_F,TGAAGCGAAGATGAAGGATGAGTCT,12,25,55.837450285957686,5.122365679154897,44.0,2,0.0,Ba_OkX,F,12_R,ACAGGATTGGTCATTGGTGGTA,22,53.3219996435895,2.6069150367867024,45.45454545454545,2,0.0,R,S4,A0605,Ba,,82
66280,12_F,TGAAGCGAAGATGAAGGATGAGTCT,12,25,55.837450285957686,5.122365679154897,44.0,2,0.0,Ba_OkX,F,12_R,ACAGGATTGGTCATTGGTGGTA,22,53.3219996435895,2.6069150367867024,45.45454545454545,2,0.0,R,S5,A0615,Ba,,0
66281,12_F,TGAAGCGAAGATGAAGGATGAGTCT,12,25,55.837450285957686,5.122365679154897,44.0,2,0.0,Ba_OkX,F,12_R,ACAGGATTGGTCATTGGTGGTA,22,53.3219996435895,2.6069150367867024,45.45454545454545,2,0.0,R,S6,A0706,Ba,,0
66091,12_F,TCGATGGTGCGAGCTT,12,16,49.92716504802661,1.645248770511138,56.25,2,0.0,Ba_LowSH,F,12_R,CTTTCTTCAATCCCTCTGCC,20,50.339014027738024,1.23339979079973,50.0,3,0.3,R,S4,A0605,Ba,,82
66092,12_F,TCGATGGTGCGAGCTT,12,16,49.92716504802661,1.645248770511138,56.25,2,0.0,Ba_LowSH,F,12_R,CTTTCTTCAATCCCTCTGCC,20,50.339014027738024,1.23339979079973,50.0,3,0.3,R,S5,A0615,Ba,,0
66093,12_F,TCGATGGTGCGAGCTT,12,16,49.92716504802661,1.645248770511138,56.25,2,0.0,Ba_LowSH,F,12_R,CTTTCTTCAATCCCTCTGCC,20,50.339014027738024,1.23339979079973,50.0,3,0.3,R,S6,A0706,Ba,,0
66158,12_F,TCGATGGTGCGAGCTT,12,16,49.92716504802661,1.645248770511138,56.25,2,0.0,Ba_LowSH,F,12_R,CTTTCTTCAATCCCTCTGCC,20,50.339014027738024,1.23339979079973,50.0,3,0.3,R,S144,BA-BaBTSeqBa007P2--xx-xxx-xxxx-021-SF,Ba,,526
66466,12_F,GCGAAGATGAAGGATGAGTCTT,12,22,52.38534995542665,5.170226294684035,45.45454545454545,2,0.0,Ba_V45,F,12_R,GGATTGGTCATTGGTGGTATTT,22,50.724271394865006,3.5091477341224007,40.90909090909091,3,0.13636363636363635,R,S2,A0330,Ba,,0
66467,12_F,GCGAAGATGAAGGATGAGTCTT,12,22,52.38534995542665,5.170226294684035,45.45454545454545,2,0.0,Ba_V45,F,12_R,GGATTGGTCATTGGTGGTATTT,22,50.724271394865006,3.5091477341224007,40.90909090909091,3,0.13636363636363635,R,S4,A0605,Ba,,82
66468,12_F,GCGAAGATGAAGGATGAGTCTT,12,22,52.38534995542665,5.170226294684035,45.45454545454545,2,0.0,Ba_V45,F,12_R,GGATTGGTCATTGGTGGTATTT,22,50.724271394865006,3.5091477341224007,40.90909090909091,3,0.13636363636363635,R,S5,A0615,Ba,,0
66469,12_F,GCGAAGATGAAGGATGAGTCTT,12,22,52.38534995542665,5.170226294684035,45.45454545454545,2,0.0,Ba_V45,F,12_R,GGATTGGTCATTGGTGGTATTT,22,50.724271394865006,3.5091477341224007,40.90909090909091,3,0.13636363636363635,R,S6,A0706,Ba,,0
66346,12_F,TGAAGCGAAGATGAAGGATGAGTCT,12,25,55.837450285957686,5.122365679154897,44.0,2,0.0,Ba_OkX,F,12_R,ACAGGATTGGTCATTGGTGGTA,22,53.3219996435895,2.6069150367867024,45.45454545454545,2,0.0,R,S144,BA-BaBTSeqBa007P2--xx-xxx-xxxx-021-SF,Ba,,526
66090,12_F,TCGATGGTGCGAGCTT,12,16,49.92716504802661,1.645248770511138,56.25,2,0.0,Ba_LowSH,F,12_R,CTTTCTTCAATCCCTCTGCC,20,50.339014027738024,1.23339979079973,50.0,3,0.3,R,S2,A0330,Ba,,0
65529,12_F,GCGAAGATGAAGGATGAGTCTT,12,22,52.38534995542665,5.1422863299110375,45.45454545454545,2,0.0,Ba_6_V4,F,12_R,GGATTGGTCATTGGTGGTATTT,22,50.724271394865006,3.4812077693494032,40.90909090909091,3,0.13636363636363635,R,S6,A0706,Ba,,0
65528,12_F,GCGAAGATGAAGGATGAGTCTT,12,22,52.38534995542665,5.1422863299110375,45.45454545454545,2,0.0,Ba_6_V4,F,12_R,GGATTGGTCATTGGTGGTATTT,22,50.724271394865006,3.4812077693494032,40.90909090909091,3,0.13636363636363635,R,S5,A0615,Ba,,0
65527,12_F,GCGAAGATGAAGGATGAGTCTT,12,22,52.38534995542665,5.1422863299110375,45.45454545454545,2,0.0,Ba_6_V4,F,12_R,GGATTGGTCATTGGTGGTATTT,22,50.724271394865006,3.4812077693494032,40.90909090909091,3,0.13636363636363635,R,S4,A0605,Ba,,82
65526,12_F,GCGAAGATGAAGGATGAGTCTT,12,22,52.38534995542665,5.1422863299110375,45.45454545454545,2,0.0,Ba_6_V4,F,12_R,GGATTGGTCATTGGTGGTATTT,22,50.724271394865006,3.4812077693494032,40.90909090909091,3,0.13636363636363635,R,S2,A0330,Ba,,0
65594,12_F,GCGAAGATGAAGGATGAGTCTT,12,22,52.38534995542665,5.1422863299110375,45.45454545454545,2,0.0,Ba_6_V4,F,12_R,GGATTGGTCATTGGTGGTATTT,22,50.724271394865006,3.4812077693494032,40.90909090909091,3,0.13636363636363635,R,S144,BA-BaBTSeqBa007P2--xx-xxx-xxxx-021-SF,Ba,,526
65341,12_F,GCGAAGATGAAGGATGAGTCTT,12,22,52.38534995542665,6.083168215840758,45.45454545454545,2,0.0,Ba_5_V3,F,12_R,GGATTGGTCATTGGTGGTATTT,22,50.724271394865006,4.422089655279123,40.90909090909091,3,0.13636363636363635,R,S6,A0706,Ba,,0
65340,12_F,GCGAAGATGAAGGATGAGTCTT,12,22,52.38534995542665,6.083168215840758,45.45454545454545,2,0.0,Ba_5_V3,F,12_R,GGATTGGTCATTGGTGGTATTT,22,50.724271394865006,4.422089655279123,40.90909090909091,3,0.13636363636363635,R,S5,A0615,Ba,,0
65339,12_F,GCGAAGATGAAGGATGAGTCTT,12,22,52.38534995542665,6.083168215840758,45.45454545454545,2,0.0,Ba_5_V3,F,12_R,GGATTGGTCATTGGTGGTATTT,22,50.724271394865006,4.422089655279123,40.90909090909091,3,0.13636363636363635,R,S4,A0605,Ba,,82
65338,12_F,GCGAAGATGAAGGATGAGTCTT,12,22,52.38534995542665,6.083168215840758,45.45454545454545,2,0.0,Ba_5_V3,F,12_R,GGATTGGTCATTGGTGGTATTT,22,50.724271394865006,4.422089655279123,40.90909090909091,3,0.13636363636363635,R,S2,A0330,Ba,,0
65406,12_F,GCGAAGATGAAGGATGAGTCTT,12,22,52.38534995542665,6.083168215840758,45.45454545454545,2,0.0,Ba_5_V3,F,12_R,GGATTGGTCATTGGTGGTATTT,22,50.724271394865006,4.422089655279123,40.90909090909091,3,0.13636363636363635,R,S144,BA-BaBTSeqBa007P2--xx-xxx-xxxx-021-SF,Ba,,526
65970,12_F,TCGATGGTGCGAGCTT,12,16,49.92716504802661,1.5952810601172445,56.25,2,0.0,Ba_HighSpec,F,12_R,CTTTCTTCAATCCCTCTGCC,20,50.339014027738024,1.1834320804058365,50.0,3,0.3,R,S144,BA-BaBTSeqBa007P2--xx-xxx-xxxx-021-SF,Ba,,526
65903,12_F,TCGATGGTGCGAGCTT,12,16,49.92716504802661,1.5952810601172445,56.25,2,0.0,Ba_HighSpec,F,12_R,CTTTCTTCAATCCCTCTGCC,20,50.339014027738024,1.1834320804058365,50.0,3,0.3,R,S4,A0605,Ba,,82
65902,12_F,TCGATGGTGCGAGCTT,12,16,49.92716504802661,1.5952810601172445,56.25,2,0.0,Ba_HighSpec,F,12_R,CTTTCTTCAATCCCTCTGCC,20,50.339014027738024,1.1834320804058365,50.0,3,0.3,R,S2,A0330,Ba,,0
65904,12_F,TCGATGGTGCGAGCTT,12,16,49.92716504802661,1.5952810601172445,56.25,2,0.0,Ba_HighSpec,F,12_R,CTTTCTTCAATCCCTCTGCC,20,50.339014027738024,1.1834320804058365,50.0,3,0.3,R,S5,A0615,Ba,,0
65905,12_F,TCGATGGTGCGAGCTT,12,16,49.92716504802661,1.5952810601172445,56.25,2,0.0,Ba_HighSpec,F,12_R,CTTTCTTCAATCCCTCTGCC,20,50.339014027738024,1.1834320804058365,50.0,3,0.3,R,S6,A0706,Ba,,0
65717,12_F,TCGATGGTGCGAGCTT,12,16,49.92716504802661,2.43739226111272,56.25,2,0.0,Ba_HighSH,F,12_R,CTTTCTTCAATCCCTCTGCC,20,50.339014027738024,2.025543281401312,50.0,3,0.3,R,S6,A0706,Ba,,0
65716,12_F,TCGATGGTGCGAGCTT,12,16,49.92716504802661,2.43739226111272,56.25,2,0.0,Ba_HighSH,F,12_R,CTTTCTTCAATCCCTCTGCC,20,50.339014027738024,2.025543281401312,50.0,3,0.3,R,S5,A0615,Ba,,0
65715,12_F,TCGATGGTGCGAGCTT,12,16,49.92716504802661,2.43739226111272,56.25,2,0.0,Ba_HighSH,F,12_R,CTTTCTTCAATCCCTCTGCC,20,50.339014027738024,2.025543281401312,50.0,3,0.3,R,S4,A0605,Ba,,82
65714,12_F,TCGATGGTGCGAGCTT,12,16,49.92716504802661,2.43739226111272,56.25,2,0.0,Ba_HighSH,F,12_R,CTTTCTTCAATCCCTCTGCC,20,50.339014027738024,2.025543281401312,50.0,3,0.3,R,S2,A0330,Ba,,0
65782,12_F,TCGATGGTGCGAGCTT,12,16,49.92716504802661,2.43739226111272,56.25,2,0.0,Ba_HighSH,F,12_R,CTTTCTTCAATCCCTCTGCC,20,50.339014027738024,2.025543281401312,50.0,3,0.3,R,S144,BA-BaBTSeqBa007P2--xx-xxx-xxxx-021-SF,Ba,,526
64654,12_F,GAAATTATCGATGGTGCGA,12,19,47.69356845737053,2.8572603316135314,42.105263157894726,3,0.15789473684210525,Ba_2,F,12_R,ATTTAACAGGATTGGTCATT,20,44.32778176573077,0.5085263600262238,30.0,3,0.15,R,S144,BA-BaBTSeqBa007P2--xx-xxx-xxxx-021-SF,Ba,,526
64777,12_F,GAAATTATCGATGGTGCGA,12,19,47.69356845737053,2.8572603316135314,42.105263157894726,3,0.15789473684210525,Ba_3,F,12_R,ATTTAACAGGATTGGTCATT,20,44.32778176573077,0.5085263600262238,30.0,3,0.15,R,S6,A0706,Ba,,0
64776,12_F,GAAATTATCGATGGTGCGA,12,19,47.69356845737053,2.8572603316135314,42.105263157894726,3,0.15789473684210525,Ba_3,F,12_R,ATTTAACAGGATTGGTCATT,20,44.32778176573077,0.5085263600262238,30.0,3,0.15,R,S5,A0615,Ba,,0
64775,12_F,GAAATTATCGATGGTGCGA,12,19,47.69356845737053,2.8572603316135314,42.105263157894726,3,0.15789473684210525,Ba_3,F,12_R,ATTTAACAGGATTGGTCATT,20,44.32778176573077,0.5085263600262238,30.0,3,0.15,R,S4,A0605,Ba,,82
64774,12_F,GAAATTATCGATGGTGCGA,12,19,47.69356845737053,2.8572603316135314,42.105263157894726,3,0.15789473684210525,Ba_3,F,12_R,ATTTAACAGGATTGGTCATT,20,44.32778176573077,0.5085263600262238,30.0,3,0.15,R,S2,A0330,Ba,,0
64466,12_F,GAAATTATCGATGGTGCGA,12,19,47.69356845737053,2.8572603316135314,42.105263157894726,3,0.15789473684210525,Ba_1,F,12_R,ATTTAACAGGATTGGTCATT,20,44.32778176573077,0.5085263600262238,30.0,3,0.15,R,S144,BA-BaBTSeqBa007P2--xx-xxx-xxxx-021-SF,Ba,,526
64401,12_F,GAAATTATCGATGGTGCGA,12,19,47.69356845737053,2.8572603316135314,42.105263157894726,3,0.15789473684210525,Ba_1,F,12_R,ATTTAACAGGATTGGTCATT,20,44.32778176573077,0.5085263600262238,30.0,3,0.15,R,S6,A0706,Ba,,0