,Primer_Name_L,Seq_L,Amplicon,Primer_Length_L,Tm_L,Delta Tm_L,GC_Content_L,Length_Longest_Homopolymer_L,Percent_Homopolymer_L,exp,flank_L,Primer_Name_R,Seq_R,Primer_Length_R,Tm_R,Delta Tm_R,GC_Content_R,Length_Longest_Homopolymer_R,Percent_Homopolymer_R,flank_R,sample_id,sample_name,species,strain,n_reads
38406,47_F,TTTTGTACTTAATGGCAG,47,18,41.751735278748754,5.491328346766857,33.33333333333333,4,0.2222222222222222,Ba_6_V4,F,47_R,GTTCTTTTGGATCCTCTT,18,43.18877375762981,4.054289867885807,38.888888888888886,4,0.2222222222222222,R,S5,A0615,Ba,,1
38405,47_F,TTTTGTACTTAATGGCAG,47,18,41.751735278748754,5.491328346766857,33.33333333333333,4,0.2222222222222222,Ba_6_V4,F,47_R,GTTCTTTTGGATCCTCTT,18,43.18877375762981,4.054289867885807,38.888888888888886,4,0.2222222222222222,R,S2,A0330,Ba,,4
38404,47_F,TTTTGTACTTAATGGCAG,47,18,41.751735278748754,5.491328346766857,33.33333333333333,4,0.2222222222222222,Ba_6_V4,F,47_R,GTTCTTTTGGATCCTCTT,18,43.18877375762981,4.054289867885807,38.888888888888886,4,0.2222222222222222,R,S6,A0706,Ba,,0
38378,47_F,TTTTGTACTTAATGGCAG,47,18,41.751735278748754,4.550446460837136,33.33333333333333,4,0.2222222222222222,Ba_5_V3,F,47_R,GTTCTTTTGGATCCTCTT,18,43.18877375762981,3.1134079819560867,38.888888888888886,4,0.2222222222222222,R,S144,BA-BaBTSeqBa007P2--xx-xxx-xxxx-021-SF,Ba,,577
38320,47_F,TTTTGTACTTAATGGCAG,47,18,41.751735278748754,4.550446460837136,33.33333333333333,4,0.2222222222222222,Ba_5_V3,F,47_R,GTTCTTTTGGATCCTCTT,18,43.18877375762981,3.1134079819560867,38.888888888888886,4,0.2222222222222222,R,S4,A0605,Ba,,855
38319,47_F,TTTTGTACTTAATGGCAG,47,18,41.751735278748754,4.550446460837136,33.33333333333333,4,0.2222222222222222,Ba_5_V3,F,47_R,GTTCTTTTGGATCCTCTT,18,43.18877375762981,3.1134079819560867,38.888888888888886,4,0.2222222222222222,R,S5,A0615,Ba,,1
38318,47_F,TTTTGTACTTAATGGCAG,47,18,41.751735278748754,4.550446460837136,33.33333333333333,4,0.2222222222222222,Ba_5_V3,F,47_R,GTTCTTTTGGATCCTCTT,18,43.18877375762981,3.1134079819560867,38.888888888888886,4,0.2222222222222222,R,S2,A0330,Ba,,4
38317,47_F,TTTTGTACTTAATGGCAG,47,18,41.751735278748754,4.550446460837136,33.33333333333333,4,0.2222222222222222,Ba_5_V3,F,47_R,GTTCTTTTGGATCCTCTT,18,43.18877375762981,3.1134079819560867,38.888888888888886,4,0.2222222222222222,R,S6,A0706,Ba,,0
38465,47_F,TTTTGTACTTAATGGCAG,47,18,41.751735278748754,5.491328346766857,33.33333333333333,4,0.2222222222222222,Ba_6_V4,F,47_R,GTTCTTTTGGATCCTCTT,18,43.18877375762981,4.054289867885807,38.888888888888886,4,0.2222222222222222,R,S144,BA-BaBTSeqBa007P2--xx-xxx-xxxx-021-SF,Ba,,577
38491,47_F,TTTTGTACTTAATGGCAG,47,18,41.751735278748754,5.463388381993859,33.33333333333333,4,0.2222222222222222,Ba_V45,F,47_R,GTTCTTTTGGATCCTCTT,18,43.18877375762981,4.026349903112808,38.888888888888886,4,0.2222222222222222,R,S6,A0706,Ba,,0
38492,47_F,TTTTGTACTTAATGGCAG,47,18,41.751735278748754,5.463388381993859,33.33333333333333,4,0.2222222222222222,Ba_V45,F,47_R,GTTCTTTTGGATCCTCTT,18,43.18877375762981,4.026349903112808,38.888888888888886,4,0.2222222222222222,R,S2,A0330,Ba,,4
38494,47_F,TTTTGTACTTAATGGCAG,47,18,41.751735278748754,5.463388381993859,33.33333333333333,4,0.2222222222222222,Ba_V45,F,47_R,GTTCTTTTGGATCCTCTT,18,43.18877375762981,4.026349903112808,38.888888888888886,4,0.2222222222222222,R,S4,A0605,Ba,,855
38552,47_F,TTTTGTACTTAATGGCAG,47,18,41.751735278748754,5.463388381993859,33.33333333333333,4,0.2222222222222222,Ba_V45,F,47_R,GTTCTTTTGGATCCTCTT,18,43.18877375762981,4.026349903112808,38.888888888888886,4,0.2222222222222222,R,S144,BA-BaBTSeqBa007P2--xx-xxx-xxxx-021-SF,Ba,,577
38493,47_F,TTTTGTACTTAATGGCAG,47,18,41.751735278748754,5.463388381993859,33.33333333333333,4,0.2222222222222222,Ba_V45,F,47_R,GTTCTTTTGGATCCTCTT,18,43.18877375762981,4.026349903112808,38.888888888888886,4,0.2222222222222222,R,S5,A0615,Ba,,1
38145,47_F,TTTTGTACTTAATGGCAG,47,18,41.751735278748754,4.550446460837136,33.33333333333333,4,0.2222222222222222,Ba_4,F,47_R,GTTCTTTTGGATCCTCTT,18,43.18877375762981,3.1134079819560867,38.888888888888886,4,0.2222222222222222,R,S5,A0615,Ba,,1
38144,47_F,TTTTGTACTTAATGGCAG,47,18,41.751735278748754,4.550446460837136,33.33333333333333,4,0.2222222222222222,Ba_4,F,47_R,GTTCTTTTGGATCCTCTT,18,43.18877375762981,3.1134079819560867,38.888888888888886,4,0.2222222222222222,R,S2,A0330,Ba,,4
38143,47_F,TTTTGTACTTAATGGCAG,47,18,41.751735278748754,4.550446460837136,33.33333333333333,4,0.2222222222222222,Ba_4,F,47_R,GTTCTTTTGGATCCTCTT,18,43.18877375762981,3.1134079819560867,38.888888888888886,4,0.2222222222222222,R,S6,A0706,Ba,,0
38117,47_F,TTTTGTACTTAATGGCAG,47,18,41.751735278748754,3.0845728470082463,33.33333333333333,4,0.2222222222222222,Ba_3,F,47_R,GTTCTTTTGGATCCTCTT,18,43.18877375762981,1.6475343681271966,38.888888888888886,4,0.2222222222222222,R,S144,BA-BaBTSeqBa007P2--xx-xxx-xxxx-021-SF,Ba,,577
38146,47_F,TTTTGTACTTAATGGCAG,47,18,41.751735278748754,4.550446460837136,33.33333333333333,4,0.2222222222222222,Ba_4,F,47_R,GTTCTTTTGGATCCTCTT,18,43.18877375762981,3.1134079819560867,38.888888888888886,4,0.2222222222222222,R,S4,A0605,Ba,,855
38059,47_F,TTTTGTACTTAATGGCAG,47,18,41.751735278748754,3.0845728470082463,33.33333333333333,4,0.2222222222222222,Ba_3,F,47_R,GTTCTTTTGGATCCTCTT,18,43.18877375762981,1.6475343681271966,38.888888888888886,4,0.2222222222222222,R,S4,A0605,Ba,,855
38058,47_F,TTTTGTACTTAATGGCAG,47,18,41.751735278748754,3.0845728470082463,33.33333333333333,4,0.2222222222222222,Ba_3,F,47_R,GTTCTTTTGGATCCTCTT,18,43.18877375762981,1.6475343681271966,38.888888888888886,4,0.2222222222222222,R,S5,A0615,Ba,,1
38057,47_F,TTTTGTACTTAATGGCAG,47,18,41.751735278748754,3.0845728470082463,33.33333333333333,4,0.2222222222222222,Ba_3,F,47_R,GTTCTTTTGGATCCTCTT,18,43.18877375762981,1.6475343681271966,38.888888888888886,4,0.2222222222222222,R,S2,A0330,Ba,,4
38056,47_F,TTTTGTACTTAATGGCAG,47,18,41.751735278748754,3.0845728470082463,33.33333333333333,4,0.2222222222222222,Ba_3,F,47_R,GTTCTTTTGGATCCTCTT,18,43.18877375762981,1.6475343681271966,38.888888888888886,4,0.2222222222222222,R,S6,A0706,Ba,,0
38291,47_F,TTTTGTACTTAATGGCAG,47,18,41.751735278748754,4.720782168364458,33.33333333333333,4,0.2222222222222222,Ba_5_V35,F,47_R,GTTCTTTTGGATCCTCTT,18,43.18877375762981,3.2837436894834084,38.888888888888886,4,0.2222222222222222,R,S144,BA-BaBTSeqBa007P2--xx-xxx-xxxx-021-SF,Ba,,577
38204,47_F,TTTTGTACTTAATGGCAG,47,18,41.751735278748754,4.550446460837136,33.33333333333333,4,0.2222222222222222,Ba_4,F,47_R,GTTCTTTTGGATCCTCTT,18,43.18877375762981,3.1134079819560867,38.888888888888886,4,0.2222222222222222,R,S144,BA-BaBTSeqBa007P2--xx-xxx-xxxx-021-SF,Ba,,577
38233,47_F,TTTTGTACTTAATGGCAG,47,18,41.751735278748754,4.720782168364458,33.33333333333333,4,0.2222222222222222,Ba_5_V35,F,47_R,GTTCTTTTGGATCCTCTT,18,43.18877375762981,3.2837436894834084,38.888888888888886,4,0.2222222222222222,R,S4,A0605,Ba,,855
38232,47_F,TTTTGTACTTAATGGCAG,47,18,41.751735278748754,4.720782168364458,33.33333333333333,4,0.2222222222222222,Ba_5_V35,F,47_R,GTTCTTTTGGATCCTCTT,18,43.18877375762981,3.2837436894834084,38.888888888888886,4,0.2222222222222222,R,S5,A0615,Ba,,1
38231,47_F,TTTTGTACTTAATGGCAG,47,18,41.751735278748754,4.720782168364458,33.33333333333333,4,0.2222222222222222,Ba_5_V35,F,47_R,GTTCTTTTGGATCCTCTT,18,43.18877375762981,3.2837436894834084,38.888888888888886,4,0.2222222222222222,R,S2,A0330,Ba,,4
38230,47_F,TTTTGTACTTAATGGCAG,47,18,41.751735278748754,4.720782168364458,33.33333333333333,4,0.2222222222222222,Ba_5_V35,F,47_R,GTTCTTTTGGATCCTCTT,18,43.18877375762981,3.2837436894834084,38.888888888888886,4,0.2222222222222222,R,S6,A0706,Ba,,0
270,48_F,CACTACCGATTTCTGGATAAAAA,48,23,48.91121845624093,4.074910330483931,34.78260869565217,5,0.3478260869565217,Ba_3,F,48_R,TCATAGTATTCTTAGATATGTGT,23,43.89752930560115,0.9387788201558463,26.08695652173913,2,0.0,R,S144,BA-BaBTSeqBa007P2--xx-xxx-xxxx-021-SF,Ba,,10
205,48_F,CACTACCGATTTCTGGATAAAAA,48,23,48.91121845624093,4.074910330483931,34.78260869565217,5,0.3478260869565217,Ba_3,F,48_R,TCATAGTATTCTTAGATATGTGT,23,43.89752930560115,0.9387788201558463,26.08695652173913,2,0.0,R,S6,A0706,Ba,,0
204,48_F,CACTACCGATTTCTGGATAAAAA,48,23,48.91121845624093,4.074910330483931,34.78260869565217,5,0.3478260869565217,Ba_3,F,48_R,TCATAGTATTCTTAGATATGTGT,23,43.89752930560115,0.9387788201558463,26.08695652173913,2,0.0,R,S2,A0330,Ba,,0
371,48_F,ATACCAATAACTCGAATC,48,18,40.31799704594727,5.984184693638625,33.33333333333333,2,0.0,Ba_4,F,48_R,CTAACATCATAAGTGAGCGGAGATT,25,52.87227596031329,6.570094220727397,40.0,2,0.0,R,S144,BA-BaBTSeqBa007P2--xx-xxx-xxxx-021-SF,Ba,,10
203,48_F,CACTACCGATTTCTGGATAAAAA,48,23,48.91121845624093,4.074910330483931,34.78260869565217,5,0.3478260869565217,Ba_3,F,48_R,TCATAGTATTCTTAGATATGTGT,23,43.89752930560115,0.9387788201558463,26.08695652173913,2,0.0,R,S4,A0605,Ba,,29
306,48_F,ATACCAATAACTCGAATC,48,18,40.31799704594727,5.984184693638625,33.33333333333333,2,0.0,Ba_4,F,48_R,CTAACATCATAAGTGAGCGGAGATT,25,52.87227596031329,6.570094220727397,40.0,2,0.0,R,S6,A0706,Ba,,0
305,48_F,ATACCAATAACTCGAATC,48,18,40.31799704594727,5.984184693638625,33.33333333333333,2,0.0,Ba_4,F,48_R,CTAACATCATAAGTGAGCGGAGATT,25,52.87227596031329,6.570094220727397,40.0,2,0.0,R,S2,A0330,Ba,,0
304,48_F,ATACCAATAACTCGAATC,48,18,40.31799704594727,5.984184693638625,33.33333333333333,2,0.0,Ba_4,F,48_R,CTAACATCATAAGTGAGCGGAGATT,25,52.87227596031329,6.570094220727397,40.0,2,0.0,R,S4,A0605,Ba,,29
303,48_F,ATACCAATAACTCGAATC,48,18,40.31799704594727,5.984184693638625,33.33333333333333,2,0.0,Ba_4,F,48_R,CTAACATCATAAGTGAGCGGAGATT,25,52.87227596031329,6.570094220727397,40.0,2,0.0,R,S5,A0615,Ba,,0
202,48_F,CACTACCGATTTCTGGATAAAAA,48,23,48.91121845624093,4.074910330483931,34.78260869565217,5,0.3478260869565217,Ba_3,F,48_R,TCATAGTATTCTTAGATATGTGT,23,43.89752930560115,0.9387788201558463,26.08695652173913,2,0.0,R,S5,A0615,Ba,,0
68,48_F,CACTACCGATTTCTGGATAAAAA,48,23,48.91121845624093,4.074910330483931,34.78260869565217,5,0.3478260869565217,Ba_1,F,48_R,TCATAGTATTCTTAGATATGTGT,23,43.89752930560115,0.9387788201558463,26.08695652173913,2,0.0,R,S144,BA-BaBTSeqBa007P2--xx-xxx-xxxx-021-SF,Ba,,10
3,48_F,CACTACCGATTTCTGGATAAAAA,48,23,48.91121845624093,4.074910330483931,34.78260869565217,5,0.3478260869565217,Ba_1,F,48_R,TCATAGTATTCTTAGATATGTGT,23,43.89752930560115,0.9387788201558463,26.08695652173913,2,0.0,R,S6,A0706,Ba,,0
2,48_F,CACTACCGATTTCTGGATAAAAA,48,23,48.91121845624093,4.074910330483931,34.78260869565217,5,0.3478260869565217,Ba_1,F,48_R,TCATAGTATTCTTAGATATGTGT,23,43.89752930560115,0.9387788201558463,26.08695652173913,2,0.0,R,S2,A0330,Ba,,0
1,48_F,CACTACCGATTTCTGGATAAAAA,48,23,48.91121845624093,4.074910330483931,34.78260869565217,5,0.3478260869565217,Ba_1,F,48_R,TCATAGTATTCTTAGATATGTGT,23,43.89752930560115,0.9387788201558463,26.08695652173913,2,0.0,R,S4,A0605,Ba,,29
101,48_F,CACTACCGATTTCTGGATAAAAA,48,23,48.91121845624093,4.074910330483931,34.78260869565217,5,0.3478260869565217,Ba_2,F,48_R,TCATAGTATTCTTAGATATGTGT,23,43.89752930560115,0.9387788201558463,26.08695652173913,2,0.0,R,S5,A0615,Ba,,0
169,48_F,CACTACCGATTTCTGGATAAAAA,48,23,48.91121845624093,4.074910330483931,34.78260869565217,5,0.3478260869565217,Ba_2,F,48_R,TCATAGTATTCTTAGATATGTGT,23,43.89752930560115,0.9387788201558463,26.08695652173913,2,0.0,R,S144,BA-BaBTSeqBa007P2--xx-xxx-xxxx-021-SF,Ba,,10
104,48_F,CACTACCGATTTCTGGATAAAAA,48,23,48.91121845624093,4.074910330483931,34.78260869565217,5,0.3478260869565217,Ba_2,F,48_R,TCATAGTATTCTTAGATATGTGT,23,43.89752930560115,0.9387788201558463,26.08695652173913,2,0.0,R,S6,A0706,Ba,,0
103,48_F,CACTACCGATTTCTGGATAAAAA,48,23,48.91121845624093,4.074910330483931,34.78260869565217,5,0.3478260869565217,Ba_2,F,48_R,TCATAGTATTCTTAGATATGTGT,23,43.89752930560115,0.9387788201558463,26.08695652173913,2,0.0,R,S2,A0330,Ba,,0
102,48_F,CACTACCGATTTCTGGATAAAAA,48,23,48.91121845624093,4.074910330483931,34.78260869565217,5,0.3478260869565217,Ba_2,F,48_R,TCATAGTATTCTTAGATATGTGT,23,43.89752930560115,0.9387788201558463,26.08695652173913,2,0.0,R,S4,A0605,Ba,,29
404,48_F,ATACCAATAACTCGAATC,48,18,40.31799704594727,6.1545204011659465,33.33333333333333,2,0.0,Ba_5_V35,F,48_R,CTAACATCATAAGTGAGCGGAGATT,25,52.87227596031329,6.3997585132000765,40.0,2,0.0,R,S5,A0615,Ba,,0
674,48_F,TGGATAACTAGGATCAGAAG,48,20,44.95024913448458,2.292814491031031,40.0,2,0.0,Ba_6_V4,F,48_R,GGAAAGGTATTTAACTCATG,20,43.4255495530055,3.8175140725101,35.0,3,0.3,R,S144,BA-BaBTSeqBa007P2--xx-xxx-xxxx-021-SF,Ba,,10
609,48_F,TGGATAACTAGGATCAGAAG,48,20,44.95024913448458,2.292814491031031,40.0,2,0.0,Ba_6_V4,F,48_R,GGAAAGGTATTTAACTCATG,20,43.4255495530055,3.8175140725101,35.0,3,0.3,R,S6,A0706,Ba,,0
707,48_F,TGGATAACTAGGATCAGAAG,48,20,44.95024913448458,2.264874526258033,40.0,2,0.0,Ba_V45,F,48_R,GGAAAGGTATTTAACTCATG,20,43.4255495530055,3.7895741077371032,35.0,3,0.3,R,S5,A0615,Ba,,0
608,48_F,TGGATAACTAGGATCAGAAG,48,20,44.95024913448458,2.292814491031031,40.0,2,0.0,Ba_6_V4,F,48_R,GGAAAGGTATTTAACTCATG,20,43.4255495530055,3.8175140725101,35.0,3,0.3,R,S2,A0330,Ba,,0
708,48_F,TGGATAACTAGGATCAGAAG,48,20,44.95024913448458,2.264874526258033,40.0,2,0.0,Ba_V45,F,48_R,GGAAAGGTATTTAACTCATG,20,43.4255495530055,3.7895741077371032,35.0,3,0.3,R,S4,A0605,Ba,,29
710,48_F,TGGATAACTAGGATCAGAAG,48,20,44.95024913448458,2.264874526258033,40.0,2,0.0,Ba_V45,F,48_R,GGAAAGGTATTTAACTCATG,20,43.4255495530055,3.7895741077371032,35.0,3,0.3,R,S6,A0706,Ba,,0
775,48_F,TGGATAACTAGGATCAGAAG,48,20,44.95024913448458,2.264874526258033,40.0,2,0.0,Ba_V45,F,48_R,GGAAAGGTATTTAACTCATG,20,43.4255495530055,3.7895741077371032,35.0,3,0.3,R,S144,BA-BaBTSeqBa007P2--xx-xxx-xxxx-021-SF,Ba,,10
709,48_F,TGGATAACTAGGATCAGAAG,48,20,44.95024913448458,2.264874526258033,40.0,2,0.0,Ba_V45,F,48_R,GGAAAGGTATTTAACTCATG,20,43.4255495530055,3.7895741077371032,35.0,3,0.3,R,S2,A0330,Ba,,0
607,48_F,TGGATAACTAGGATCAGAAG,48,20,44.95024913448458,2.292814491031031,40.0,2,0.0,Ba_6_V4,F,48_R,GGAAAGGTATTTAACTCATG,20,43.4255495530055,3.8175140725101,35.0,3,0.3,R,S4,A0605,Ba,,29
606,48_F,TGGATAACTAGGATCAGAAG,48,20,44.95024913448458,2.292814491031031,40.0,2,0.0,Ba_6_V4,F,48_R,GGAAAGGTATTTAACTCATG,20,43.4255495530055,3.8175140725101,35.0,3,0.3,R,S5,A0615,Ba,,0
472,48_F,ATACCAATAACTCGAATC,48,18,40.31799704594727,6.1545204011659465,33.33333333333333,2,0.0,Ba_5_V35,F,48_R,CTAACATCATAAGTGAGCGGAGATT,25,52.87227596031329,6.3997585132000765,40.0,2,0.0,R,S144,BA-BaBTSeqBa007P2--xx-xxx-xxxx-021-SF,Ba,,10
407,48_F,ATACCAATAACTCGAATC,48,18,40.31799704594727,6.1545204011659465,33.33333333333333,2,0.0,Ba_5_V35,F,48_R,CTAACATCATAAGTGAGCGGAGATT,25,52.87227596031329,6.3997585132000765,40.0,2,0.0,R,S6,A0706,Ba,,0
406,48_F,ATACCAATAACTCGAATC,48,18,40.31799704594727,6.1545204011659465,33.33333333333333,2,0.0,Ba_5_V35,F,48_R,CTAACATCATAAGTGAGCGGAGATT,25,52.87227596031329,6.3997585132000765,40.0,2,0.0,R,S2,A0330,Ba,,0
405,48_F,ATACCAATAACTCGAATC,48,18,40.31799704594727,6.1545204011659465,33.33333333333333,2,0.0,Ba_5_V35,F,48_R,CTAACATCATAAGTGAGCGGAGATT,25,52.87227596031329,6.3997585132000765,40.0,2,0.0,R,S4,A0605,Ba,,29
505,48_F,ATACCAATAACTCGAATC,48,18,40.31799704594727,5.984184693638625,33.33333333333333,2,0.0,Ba_5_V3,F,48_R,CTAACATCATAAGTGAGCGGAGATT,25,52.87227596031329,6.570094220727397,40.0,2,0.0,R,S5,A0615,Ba,,0
573,48_F,ATACCAATAACTCGAATC,48,18,40.31799704594727,5.984184693638625,33.33333333333333,2,0.0,Ba_5_V3,F,48_R,CTAACATCATAAGTGAGCGGAGATT,25,52.87227596031329,6.570094220727397,40.0,2,0.0,R,S144,BA-BaBTSeqBa007P2--xx-xxx-xxxx-021-SF,Ba,,10
508,48_F,ATACCAATAACTCGAATC,48,18,40.31799704594727,5.984184693638625,33.33333333333333,2,0.0,Ba_5_V3,F,48_R,CTAACATCATAAGTGAGCGGAGATT,25,52.87227596031329,6.570094220727397,40.0,2,0.0,R,S6,A0706,Ba,,0
507,48_F,ATACCAATAACTCGAATC,48,18,40.31799704594727,5.984184693638625,33.33333333333333,2,0.0,Ba_5_V3,F,48_R,CTAACATCATAAGTGAGCGGAGATT,25,52.87227596031329,6.570094220727397,40.0,2,0.0,R,S2,A0330,Ba,,0
506,48_F,ATACCAATAACTCGAATC,48,18,40.31799704594727,5.984184693638625,33.33333333333333,2,0.0,Ba_5_V3,F,48_R,CTAACATCATAAGTGAGCGGAGATT,25,52.87227596031329,6.570094220727397,40.0,2,0.0,R,S4,A0605,Ba,,29
0,48_F,CACTACCGATTTCTGGATAAAAA,48,23,48.91121845624093,4.074910330483931,34.78260869565217,5,0.3478260869565217,Ba_1,F,48_R,TCATAGTATTCTTAGATATGTGT,23,43.89752930560115,0.9387788201558463,26.08695652173913,2,0.0,R,S5,A0615,Ba,,0
80897,49_F,TTTGATAGGAATTACTGCG,49,19,44.56827059216352,0.2680375335934855,36.84210526315789,3,0.15789473684210525,Ba_3,F,49_R,AATGTAATCTCTGGATCGTTA,21,45.98558942591609,1.1492813001590891,33.33333333333333,2,0.0,R,S144,BA-BaBTSeqBa007P2--xx-xxx-xxxx-021-SF,Ba,,203
80832,49_F,TTTGATAGGAATTACTGCG,49,19,44.56827059216352,0.2680375335934855,36.84210526315789,3,0.15789473684210525,Ba_3,F,49_R,AATGTAATCTCTGGATCGTTA,21,45.98558942591609,1.1492813001590891,33.33333333333333,2,0.0,R,S4,A0605,Ba,,3574
80831,49_F,TTTGATAGGAATTACTGCG,49,19,44.56827059216352,0.2680375335934855,36.84210526315789,3,0.15789473684210525,Ba_3,F,49_R,AATGTAATCTCTGGATCGTTA,21,45.98558942591609,1.1492813001590891,33.33333333333333,2,0.0,R,S2,A0330,Ba,,25
80830,49_F,TTTGATAGGAATTACTGCG,49,19,44.56827059216352,0.2680375335934855,36.84210526315789,3,0.15789473684210525,Ba_3,F,49_R,AATGTAATCTCTGGATCGTTA,21,45.98558942591609,1.1492813001590891,33.33333333333333,2,0.0,R,S6,A0706,Ba,,3
80829,49_F,TTTGATAGGAATTACTGCG,49,19,44.56827059216352,0.2680375335934855,36.84210526315789,3,0.15789473684210525,Ba_3,F,49_R,AATGTAATCTCTGGATCGTTA,21,45.98558942591609,1.1492813001590891,33.33333333333333,2,0.0,R,S5,A0615,Ba,,17
80929,49_F,TTTGATAGGAATTACTGCG,49,19,44.56827059216352,1.7339111474223756,36.84210526315789,3,0.15789473684210525,Ba_4,F,49_R,AATGTAATCTCTGGATCGTTA,21,45.98558942591609,0.31659231366980123,33.33333333333333,2,0.0,R,S6,A0706,Ba,,3
80996,49_F,TTTGATAGGAATTACTGCG,49,19,44.56827059216352,1.7339111474223756,36.84210526315789,3,0.15789473684210525,Ba_4,F,49_R,AATGTAATCTCTGGATCGTTA,21,45.98558942591609,0.31659231366980123,33.33333333333333,2,0.0,R,S144,BA-BaBTSeqBa007P2--xx-xxx-xxxx-021-SF,Ba,,203
80931,49_F,TTTGATAGGAATTACTGCG,49,19,44.56827059216352,1.7339111474223756,36.84210526315789,3,0.15789473684210525,Ba_4,F,49_R,AATGTAATCTCTGGATCGTTA,21,45.98558942591609,0.31659231366980123,33.33333333333333,2,0.0,R,S4,A0605,Ba,,3574
80930,49_F,TTTGATAGGAATTACTGCG,49,19,44.56827059216352,1.7339111474223756,36.84210526315789,3,0.15789473684210525,Ba_4,F,49_R,AATGTAATCTCTGGATCGTTA,21,45.98558942591609,0.31659231366980123,33.33333333333333,2,0.0,R,S2,A0330,Ba,,25
80928,49_F,TTTGATAGGAATTACTGCG,49,19,44.56827059216352,1.7339111474223756,36.84210526315789,3,0.15789473684210525,Ba_4,F,49_R,AATGTAATCTCTGGATCGTTA,21,45.98558942591609,0.31659231366980123,33.33333333333333,2,0.0,R,S5,A0615,Ba,,17
80699,49_F,TTTGATAGGAATTACTGCG,49,19,44.56827059216352,0.2680375335934855,36.84210526315789,3,0.15789473684210525,Ba_1,F,49_R,AATGTAATCTCTGGATCGTTA,21,45.98558942591609,1.1492813001590891,33.33333333333333,2,0.0,R,S144,BA-BaBTSeqBa007P2--xx-xxx-xxxx-021-SF,Ba,,203
80634,49_F,TTTGATAGGAATTACTGCG,49,19,44.56827059216352,0.2680375335934855,36.84210526315789,3,0.15789473684210525,Ba_1,F,49_R,AATGTAATCTCTGGATCGTTA,21,45.98558942591609,1.1492813001590891,33.33333333333333,2,0.0,R,S4,A0605,Ba,,3574
80633,49_F,TTTGATAGGAATTACTGCG,49,19,44.56827059216352,0.2680375335934855,36.84210526315789,3,0.15789473684210525,Ba_1,F,49_R,AATGTAATCTCTGGATCGTTA,21,45.98558942591609,1.1492813001590891,33.33333333333333,2,0.0,R,S2,A0330,Ba,,25
80632,49_F,TTTGATAGGAATTACTGCG,49,19,44.56827059216352,0.2680375335934855,36.84210526315789,3,0.15789473684210525,Ba_1,F,49_R,AATGTAATCTCTGGATCGTTA,21,45.98558942591609,1.1492813001590891,33.33333333333333,2,0.0,R,S6,A0706,Ba,,3
80730,49_F,TTTGATAGGAATTACTGCG,49,19,44.56827059216352,0.2680375335934855,36.84210526315789,3,0.15789473684210525,Ba_2,F,49_R,AATGTAATCTCTGGATCGTTA,21,45.98558942591609,1.1492813001590891,33.33333333333333,2,0.0,R,S5,A0615,Ba,,17
80798,49_F,TTTGATAGGAATTACTGCG,49,19,44.56827059216352,0.2680375335934855,36.84210526315789,3,0.15789473684210525,Ba_2,F,49_R,AATGTAATCTCTGGATCGTTA,21,45.98558942591609,1.1492813001590891,33.33333333333333,2,0.0,R,S144,BA-BaBTSeqBa007P2--xx-xxx-xxxx-021-SF,Ba,,203