,Primer_Name_L,Seq_L,Amplicon,Primer_Length_L,Tm_L,Delta Tm_L,GC_Content_L,Length_Longest_Homopolymer_L,Percent_Homopolymer_L,exp,flank_L,Primer_Name_R,Seq_R,Primer_Length_R,Tm_R,Delta Tm_R,GC_Content_R,Length_Longest_Homopolymer_R,Percent_Homopolymer_R,flank_R,sample_id,sample_name,species,strain,n_reads
80733,49_F,TTTGATAGGAATTACTGCG,49,19,44.56827059216352,0.2680375335934855,36.84210526315789,3,0.15789473684210525,Ba_2,F,49_R,AATGTAATCTCTGGATCGTTA,21,45.98558942591609,1.1492813001590891,33.33333333333333,2,0.0,R,S4,A0605,Ba,,3574
80732,49_F,TTTGATAGGAATTACTGCG,49,19,44.56827059216352,0.2680375335934855,36.84210526315789,3,0.15789473684210525,Ba_2,F,49_R,AATGTAATCTCTGGATCGTTA,21,45.98558942591609,1.1492813001590891,33.33333333333333,2,0.0,R,S2,A0330,Ba,,25
80731,49_F,TTTGATAGGAATTACTGCG,49,19,44.56827059216352,0.2680375335934855,36.84210526315789,3,0.15789473684210525,Ba_2,F,49_R,AATGTAATCTCTGGATCGTTA,21,45.98558942591609,1.1492813001590891,33.33333333333333,2,0.0,R,S6,A0706,Ba,,3
80631,49_F,TTTGATAGGAATTACTGCG,49,19,44.56827059216352,0.2680375335934855,36.84210526315789,3,0.15789473684210525,Ba_1,F,49_R,AATGTAATCTCTGGATCGTTA,21,45.98558942591609,1.1492813001590891,33.33333333333333,2,0.0,R,S5,A0615,Ba,,17
81028,49_F,TTTGATAGGAATTACTGCG,49,19,44.56827059216352,1.9042468549496971,36.84210526315789,3,0.15789473684210525,Ba_5_V35,F,49_R,AATGTAATCTCTGGATCGTTA,21,45.98558942591609,0.48692802119712303,33.33333333333333,2,0.0,R,S6,A0706,Ba,,3
81293,49_F,TTTGATAGGAATTACTGCG,49,19,44.56827059216352,2.6747930333520955,36.84210526315789,3,0.15789473684210525,Ba_6_V4,F,49_R,AATGTAATCTCTGGATCGTTA,21,45.98558942591609,1.2574741995995211,33.33333333333333,2,0.0,R,S144,BA-BaBTSeqBa007P2--xx-xxx-xxxx-021-SF,Ba,,203
81228,49_F,TTTGATAGGAATTACTGCG,49,19,44.56827059216352,2.6747930333520955,36.84210526315789,3,0.15789473684210525,Ba_6_V4,F,49_R,AATGTAATCTCTGGATCGTTA,21,45.98558942591609,1.2574741995995211,33.33333333333333,2,0.0,R,S4,A0605,Ba,,3574
81227,49_F,TTTGATAGGAATTACTGCG,49,19,44.56827059216352,2.6747930333520955,36.84210526315789,3,0.15789473684210525,Ba_6_V4,F,49_R,AATGTAATCTCTGGATCGTTA,21,45.98558942591609,1.2574741995995211,33.33333333333333,2,0.0,R,S2,A0330,Ba,,25
81226,49_F,TTTGATAGGAATTACTGCG,49,19,44.56827059216352,2.6747930333520955,36.84210526315789,3,0.15789473684210525,Ba_6_V4,F,49_R,AATGTAATCTCTGGATCGTTA,21,45.98558942591609,1.2574741995995211,33.33333333333333,2,0.0,R,S6,A0706,Ba,,3
81325,49_F,TTTGATAGGAATTACTGCG,49,19,44.56827059216352,2.646853068579098,36.84210526315789,3,0.15789473684210525,Ba_V45,F,49_R,AATGTAATCTCTGGATCGTTA,21,45.98558942591609,1.2295342348265237,33.33333333333333,2,0.0,R,S6,A0706,Ba,,3
81392,49_F,TTTGATAGGAATTACTGCG,49,19,44.56827059216352,2.646853068579098,36.84210526315789,3,0.15789473684210525,Ba_V45,F,49_R,AATGTAATCTCTGGATCGTTA,21,45.98558942591609,1.2295342348265237,33.33333333333333,2,0.0,R,S144,BA-BaBTSeqBa007P2--xx-xxx-xxxx-021-SF,Ba,,203
81327,49_F,TTTGATAGGAATTACTGCG,49,19,44.56827059216352,2.646853068579098,36.84210526315789,3,0.15789473684210525,Ba_V45,F,49_R,AATGTAATCTCTGGATCGTTA,21,45.98558942591609,1.2295342348265237,33.33333333333333,2,0.0,R,S4,A0605,Ba,,3574
81326,49_F,TTTGATAGGAATTACTGCG,49,19,44.56827059216352,2.646853068579098,36.84210526315789,3,0.15789473684210525,Ba_V45,F,49_R,AATGTAATCTCTGGATCGTTA,21,45.98558942591609,1.2295342348265237,33.33333333333333,2,0.0,R,S2,A0330,Ba,,25
81324,49_F,TTTGATAGGAATTACTGCG,49,19,44.56827059216352,2.646853068579098,36.84210526315789,3,0.15789473684210525,Ba_V45,F,49_R,AATGTAATCTCTGGATCGTTA,21,45.98558942591609,1.2295342348265237,33.33333333333333,2,0.0,R,S5,A0615,Ba,,17
81027,49_F,TTTGATAGGAATTACTGCG,49,19,44.56827059216352,1.9042468549496971,36.84210526315789,3,0.15789473684210525,Ba_5_V35,F,49_R,AATGTAATCTCTGGATCGTTA,21,45.98558942591609,0.48692802119712303,33.33333333333333,2,0.0,R,S5,A0615,Ba,,17
81225,49_F,TTTGATAGGAATTACTGCG,49,19,44.56827059216352,2.6747930333520955,36.84210526315789,3,0.15789473684210525,Ba_6_V4,F,49_R,AATGTAATCTCTGGATCGTTA,21,45.98558942591609,1.2574741995995211,33.33333333333333,2,0.0,R,S5,A0615,Ba,,17
81095,49_F,TTTGATAGGAATTACTGCG,49,19,44.56827059216352,1.9042468549496971,36.84210526315789,3,0.15789473684210525,Ba_5_V35,F,49_R,AATGTAATCTCTGGATCGTTA,21,45.98558942591609,0.48692802119712303,33.33333333333333,2,0.0,R,S144,BA-BaBTSeqBa007P2--xx-xxx-xxxx-021-SF,Ba,,203
81030,49_F,TTTGATAGGAATTACTGCG,49,19,44.56827059216352,1.9042468549496971,36.84210526315789,3,0.15789473684210525,Ba_5_V35,F,49_R,AATGTAATCTCTGGATCGTTA,21,45.98558942591609,0.48692802119712303,33.33333333333333,2,0.0,R,S4,A0605,Ba,,3574
81029,49_F,TTTGATAGGAATTACTGCG,49,19,44.56827059216352,1.9042468549496971,36.84210526315789,3,0.15789473684210525,Ba_5_V35,F,49_R,AATGTAATCTCTGGATCGTTA,21,45.98558942591609,0.48692802119712303,33.33333333333333,2,0.0,R,S2,A0330,Ba,,25
81127,49_F,TTTGATAGGAATTACTGCG,49,19,44.56827059216352,1.7339111474223756,36.84210526315789,3,0.15789473684210525,Ba_5_V3,F,49_R,AATGTAATCTCTGGATCGTTA,21,45.98558942591609,0.31659231366980123,33.33333333333333,2,0.0,R,S6,A0706,Ba,,3
81194,49_F,TTTGATAGGAATTACTGCG,49,19,44.56827059216352,1.7339111474223756,36.84210526315789,3,0.15789473684210525,Ba_5_V3,F,49_R,AATGTAATCTCTGGATCGTTA,21,45.98558942591609,0.31659231366980123,33.33333333333333,2,0.0,R,S144,BA-BaBTSeqBa007P2--xx-xxx-xxxx-021-SF,Ba,,203
81129,49_F,TTTGATAGGAATTACTGCG,49,19,44.56827059216352,1.7339111474223756,36.84210526315789,3,0.15789473684210525,Ba_5_V3,F,49_R,AATGTAATCTCTGGATCGTTA,21,45.98558942591609,0.31659231366980123,33.33333333333333,2,0.0,R,S4,A0605,Ba,,3574
81128,49_F,TTTGATAGGAATTACTGCG,49,19,44.56827059216352,1.7339111474223756,36.84210526315789,3,0.15789473684210525,Ba_5_V3,F,49_R,AATGTAATCTCTGGATCGTTA,21,45.98558942591609,0.31659231366980123,33.33333333333333,2,0.0,R,S2,A0330,Ba,,25
81126,49_F,TTTGATAGGAATTACTGCG,49,19,44.56827059216352,1.7339111474223756,36.84210526315789,3,0.15789473684210525,Ba_5_V3,F,49_R,AATGTAATCTCTGGATCGTTA,21,45.98558942591609,0.31659231366980123,33.33333333333333,2,0.0,R,S5,A0615,Ba,,17
51511,50_F,TATGAAGGTGAACAAGCTTTG,50,21,48.64053450441134,2.1680170572981226,38.095238095238095,3,0.14285714285714285,Ba_5_V35,F,50_R,TCACGGTTGTAATTTTCCAA,20,47.569454571705705,1.0969371245924933,35.0,4,0.2,R,S2,A0330,Ba,,7
51512,50_F,TATGAAGGTGAACAAGCTTTG,50,21,48.64053450441134,2.1680170572981226,38.095238095238095,3,0.14285714285714285,Ba_5_V35,F,50_R,TCACGGTTGTAATTTTCCAA,20,47.569454571705705,1.0969371245924933,35.0,4,0.2,R,S6,A0706,Ba,,12
51510,50_F,TATGAAGGTGAACAAGCTTTG,50,21,48.64053450441134,2.1680170572981226,38.095238095238095,3,0.14285714285714285,Ba_5_V35,F,50_R,TCACGGTTGTAATTTTCCAA,20,47.569454571705705,1.0969371245924933,35.0,4,0.2,R,S5,A0615,Ba,,11
51509,50_F,TATGAAGGTGAACAAGCTTTG,50,21,48.64053450441134,2.1680170572981226,38.095238095238095,3,0.14285714285714285,Ba_5_V35,F,50_R,TCACGGTTGTAATTTTCCAA,20,47.569454571705705,1.0969371245924933,35.0,4,0.2,R,S4,A0605,Ba,,3482
51580,50_F,TATGAAGGTGAACAAGCTTTG,50,21,48.64053450441134,2.1680170572981226,38.095238095238095,3,0.14285714285714285,Ba_5_V35,F,50_R,TCACGGTTGTAATTTTCCAA,20,47.569454571705705,1.0969371245924933,35.0,4,0.2,R,S144,BA-BaBTSeqBa007P2--xx-xxx-xxxx-021-SF,Ba,,427
51880,50_F,TATGAAGGTGAACAAGCTTTG,50,21,48.64053450441134,1.4254108436687218,38.095238095238095,3,0.14285714285714285,Ba_V45,F,50_R,TCACGGTTGTAATTTTCCAA,20,47.569454571705705,0.3543309109630925,35.0,4,0.2,R,S144,BA-BaBTSeqBa007P2--xx-xxx-xxxx-021-SF,Ba,,427
51809,50_F,TATGAAGGTGAACAAGCTTTG,50,21,48.64053450441134,1.4254108436687218,38.095238095238095,3,0.14285714285714285,Ba_V45,F,50_R,TCACGGTTGTAATTTTCCAA,20,47.569454571705705,0.3543309109630925,35.0,4,0.2,R,S4,A0605,Ba,,3482
51810,50_F,TATGAAGGTGAACAAGCTTTG,50,21,48.64053450441134,1.4254108436687218,38.095238095238095,3,0.14285714285714285,Ba_V45,F,50_R,TCACGGTTGTAATTTTCCAA,20,47.569454571705705,0.3543309109630925,35.0,4,0.2,R,S5,A0615,Ba,,11
51811,50_F,TATGAAGGTGAACAAGCTTTG,50,21,48.64053450441134,1.4254108436687218,38.095238095238095,3,0.14285714285714285,Ba_V45,F,50_R,TCACGGTTGTAATTTTCCAA,20,47.569454571705705,0.3543309109630925,35.0,4,0.2,R,S2,A0330,Ba,,7
51812,50_F,TATGAAGGTGAACAAGCTTTG,50,21,48.64053450441134,1.4254108436687218,38.095238095238095,3,0.14285714285714285,Ba_V45,F,50_R,TCACGGTTGTAATTTTCCAA,20,47.569454571705705,0.3543309109630925,35.0,4,0.2,R,S6,A0706,Ba,,12
51711,50_F,TATGAAGGTGAACAAGCTTTG,50,21,48.64053450441134,1.3974708788957244,38.095238095238095,3,0.14285714285714285,Ba_6_V4,F,50_R,TCACGGTTGTAATTTTCCAA,20,47.569454571705705,0.3263909461900951,35.0,4,0.2,R,S2,A0330,Ba,,7
51712,50_F,TATGAAGGTGAACAAGCTTTG,50,21,48.64053450441134,1.3974708788957244,38.095238095238095,3,0.14285714285714285,Ba_6_V4,F,50_R,TCACGGTTGTAATTTTCCAA,20,47.569454571705705,0.3263909461900951,35.0,4,0.2,R,S6,A0706,Ba,,12
51710,50_F,TATGAAGGTGAACAAGCTTTG,50,21,48.64053450441134,1.3974708788957244,38.095238095238095,3,0.14285714285714285,Ba_6_V4,F,50_R,TCACGGTTGTAATTTTCCAA,20,47.569454571705705,0.3263909461900951,35.0,4,0.2,R,S5,A0615,Ba,,11
51709,50_F,TATGAAGGTGAACAAGCTTTG,50,21,48.64053450441134,1.3974708788957244,38.095238095238095,3,0.14285714285714285,Ba_6_V4,F,50_R,TCACGGTTGTAATTTTCCAA,20,47.569454571705705,0.3263909461900951,35.0,4,0.2,R,S4,A0605,Ba,,3482
51780,50_F,TATGAAGGTGAACAAGCTTTG,50,21,48.64053450441134,1.3974708788957244,38.095238095238095,3,0.14285714285714285,Ba_6_V4,F,50_R,TCACGGTTGTAATTTTCCAA,20,47.569454571705705,0.3263909461900951,35.0,4,0.2,R,S144,BA-BaBTSeqBa007P2--xx-xxx-xxxx-021-SF,Ba,,427
51611,50_F,TATGAAGGTGAACAAGCTTTG,50,21,48.64053450441134,2.3383527648254443,38.095238095238095,3,0.14285714285714285,Ba_5_V3,F,50_R,TCACGGTTGTAATTTTCCAA,20,47.569454571705705,1.267272832119815,35.0,4,0.2,R,S2,A0330,Ba,,7
51612,50_F,TATGAAGGTGAACAAGCTTTG,50,21,48.64053450441134,2.3383527648254443,38.095238095238095,3,0.14285714285714285,Ba_5_V3,F,50_R,TCACGGTTGTAATTTTCCAA,20,47.569454571705705,1.267272832119815,35.0,4,0.2,R,S6,A0706,Ba,,12
51610,50_F,TATGAAGGTGAACAAGCTTTG,50,21,48.64053450441134,2.3383527648254443,38.095238095238095,3,0.14285714285714285,Ba_5_V3,F,50_R,TCACGGTTGTAATTTTCCAA,20,47.569454571705705,1.267272832119815,35.0,4,0.2,R,S5,A0615,Ba,,11
51609,50_F,TATGAAGGTGAACAAGCTTTG,50,21,48.64053450441134,2.3383527648254443,38.095238095238095,3,0.14285714285714285,Ba_5_V3,F,50_R,TCACGGTTGTAATTTTCCAA,20,47.569454571705705,1.267272832119815,35.0,4,0.2,R,S4,A0605,Ba,,3482
51680,50_F,TATGAAGGTGAACAAGCTTTG,50,21,48.64053450441134,2.3383527648254443,38.095238095238095,3,0.14285714285714285,Ba_5_V3,F,50_R,TCACGGTTGTAATTTTCCAA,20,47.569454571705705,1.267272832119815,35.0,4,0.2,R,S144,BA-BaBTSeqBa007P2--xx-xxx-xxxx-021-SF,Ba,,427
51212,50_F,TATGAAGGTGAACAAGCTTTG,50,21,48.64053450441134,3.8042263786543344,38.095238095238095,3,0.14285714285714285,Ba_2,F,50_R,TCACGGTTGTAATTTTCCAA,20,47.569454571705705,2.733146445948705,35.0,4,0.2,R,S6,A0706,Ba,,12
51211,50_F,TATGAAGGTGAACAAGCTTTG,50,21,48.64053450441134,3.8042263786543344,38.095238095238095,3,0.14285714285714285,Ba_2,F,50_R,TCACGGTTGTAATTTTCCAA,20,47.569454571705705,2.733146445948705,35.0,4,0.2,R,S2,A0330,Ba,,7
51280,50_F,TATGAAGGTGAACAAGCTTTG,50,21,48.64053450441134,3.8042263786543344,38.095238095238095,3,0.14285714285714285,Ba_2,F,50_R,TCACGGTTGTAATTTTCCAA,20,47.569454571705705,2.733146445948705,35.0,4,0.2,R,S144,BA-BaBTSeqBa007P2--xx-xxx-xxxx-021-SF,Ba,,427
51210,50_F,TATGAAGGTGAACAAGCTTTG,50,21,48.64053450441134,3.8042263786543344,38.095238095238095,3,0.14285714285714285,Ba_2,F,50_R,TCACGGTTGTAATTTTCCAA,20,47.569454571705705,2.733146445948705,35.0,4,0.2,R,S5,A0615,Ba,,11
51111,50_F,TATGAAGGTGAACAAGCTTTG,50,21,48.64053450441134,3.8042263786543344,38.095238095238095,3,0.14285714285714285,Ba_1,F,50_R,TCACGGTTGTAATTTTCCAA,20,47.569454571705705,2.733146445948705,35.0,4,0.2,R,S2,A0330,Ba,,7
51110,50_F,TATGAAGGTGAACAAGCTTTG,50,21,48.64053450441134,3.8042263786543344,38.095238095238095,3,0.14285714285714285,Ba_1,F,50_R,TCACGGTTGTAATTTTCCAA,20,47.569454571705705,2.733146445948705,35.0,4,0.2,R,S5,A0615,Ba,,11
51109,50_F,TATGAAGGTGAACAAGCTTTG,50,21,48.64053450441134,3.8042263786543344,38.095238095238095,3,0.14285714285714285,Ba_1,F,50_R,TCACGGTTGTAATTTTCCAA,20,47.569454571705705,2.733146445948705,35.0,4,0.2,R,S4,A0605,Ba,,3482
51209,50_F,TATGAAGGTGAACAAGCTTTG,50,21,48.64053450441134,3.8042263786543344,38.095238095238095,3,0.14285714285714285,Ba_2,F,50_R,TCACGGTTGTAATTTTCCAA,20,47.569454571705705,2.733146445948705,35.0,4,0.2,R,S4,A0605,Ba,,3482
51180,50_F,TATGAAGGTGAACAAGCTTTG,50,21,48.64053450441134,3.8042263786543344,38.095238095238095,3,0.14285714285714285,Ba_1,F,50_R,TCACGGTTGTAATTTTCCAA,20,47.569454571705705,2.733146445948705,35.0,4,0.2,R,S144,BA-BaBTSeqBa007P2--xx-xxx-xxxx-021-SF,Ba,,427
51309,50_F,TATGAAGGTGAACAAGCTTTG,50,21,48.64053450441134,3.8042263786543344,38.095238095238095,3,0.14285714285714285,Ba_3,F,50_R,TCACGGTTGTAATTTTCCAA,20,47.569454571705705,2.733146445948705,35.0,4,0.2,R,S4,A0605,Ba,,3482
51311,50_F,TATGAAGGTGAACAAGCTTTG,50,21,48.64053450441134,3.8042263786543344,38.095238095238095,3,0.14285714285714285,Ba_3,F,50_R,TCACGGTTGTAATTTTCCAA,20,47.569454571705705,2.733146445948705,35.0,4,0.2,R,S2,A0330,Ba,,7
51411,50_F,TATGAAGGTGAACAAGCTTTG,50,21,48.64053450441134,2.3383527648254443,38.095238095238095,3,0.14285714285714285,Ba_4,F,50_R,TCACGGTTGTAATTTTCCAA,20,47.569454571705705,1.267272832119815,35.0,4,0.2,R,S2,A0330,Ba,,7
51412,50_F,TATGAAGGTGAACAAGCTTTG,50,21,48.64053450441134,2.3383527648254443,38.095238095238095,3,0.14285714285714285,Ba_4,F,50_R,TCACGGTTGTAATTTTCCAA,20,47.569454571705705,1.267272832119815,35.0,4,0.2,R,S6,A0706,Ba,,12
51410,50_F,TATGAAGGTGAACAAGCTTTG,50,21,48.64053450441134,2.3383527648254443,38.095238095238095,3,0.14285714285714285,Ba_4,F,50_R,TCACGGTTGTAATTTTCCAA,20,47.569454571705705,1.267272832119815,35.0,4,0.2,R,S5,A0615,Ba,,11
51480,50_F,TATGAAGGTGAACAAGCTTTG,50,21,48.64053450441134,2.3383527648254443,38.095238095238095,3,0.14285714285714285,Ba_4,F,50_R,TCACGGTTGTAATTTTCCAA,20,47.569454571705705,1.267272832119815,35.0,4,0.2,R,S144,BA-BaBTSeqBa007P2--xx-xxx-xxxx-021-SF,Ba,,427
51310,50_F,TATGAAGGTGAACAAGCTTTG,50,21,48.64053450441134,3.8042263786543344,38.095238095238095,3,0.14285714285714285,Ba_3,F,50_R,TCACGGTTGTAATTTTCCAA,20,47.569454571705705,2.733146445948705,35.0,4,0.2,R,S5,A0615,Ba,,11
51409,50_F,TATGAAGGTGAACAAGCTTTG,50,21,48.64053450441134,2.3383527648254443,38.095238095238095,3,0.14285714285714285,Ba_4,F,50_R,TCACGGTTGTAATTTTCCAA,20,47.569454571705705,1.267272832119815,35.0,4,0.2,R,S4,A0605,Ba,,3482
51312,50_F,TATGAAGGTGAACAAGCTTTG,50,21,48.64053450441134,3.8042263786543344,38.095238095238095,3,0.14285714285714285,Ba_3,F,50_R,TCACGGTTGTAATTTTCCAA,20,47.569454571705705,2.733146445948705,35.0,4,0.2,R,S6,A0706,Ba,,12
51380,50_F,TATGAAGGTGAACAAGCTTTG,50,21,48.64053450441134,3.8042263786543344,38.095238095238095,3,0.14285714285714285,Ba_3,F,50_R,TCACGGTTGTAATTTTCCAA,20,47.569454571705705,2.733146445948705,35.0,4,0.2,R,S144,BA-BaBTSeqBa007P2--xx-xxx-xxxx-021-SF,Ba,,427
51112,50_F,TATGAAGGTGAACAAGCTTTG,50,21,48.64053450441134,3.8042263786543344,38.095238095238095,3,0.14285714285714285,Ba_1,F,50_R,TCACGGTTGTAATTTTCCAA,20,47.569454571705705,2.733146445948705,35.0,4,0.2,R,S6,A0706,Ba,,12
38849,51_F,TATTCGTCGCATGGAAAT,51,18,46.03876531173069,1.2024571859736852,38.888888888888886,3,0.16666666666666666,Ba_3,F,51_R,TCTAGTCTAAATGGATCTTTA,21,42.44892069505903,2.38738743069797,28.57142857142857,3,0.2857142857142857,R,S144,BA-BaBTSeqBa007P2--xx-xxx-xxxx-021-SF,Ba,,679
38775,51_F,TATTCGTCGCATGGAAAT,51,18,46.03876531173069,1.2024571859736852,38.888888888888886,3,0.16666666666666666,Ba_3,F,51_R,TCTAGTCTAAATGGATCTTTA,21,42.44892069505903,2.38738743069797,28.57142857142857,3,0.2857142857142857,R,S2,A0330,Ba,,0
38774,51_F,TATTCGTCGCATGGAAAT,51,18,46.03876531173069,1.2024571859736852,38.888888888888886,3,0.16666666666666666,Ba_3,F,51_R,TCTAGTCTAAATGGATCTTTA,21,42.44892069505903,2.38738743069797,28.57142857142857,3,0.2857142857142857,R,S4,A0605,Ba,,326
38773,51_F,TATTCGTCGCATGGAAAT,51,18,46.03876531173069,1.2024571859736852,38.888888888888886,3,0.16666666666666666,Ba_3,F,51_R,TCTAGTCTAAATGGATCTTTA,21,42.44892069505903,2.38738743069797,28.57142857142857,3,0.2857142857142857,R,S6,A0706,Ba,,0
38870,51_F,TATTCGTCGCATGGAAAT,51,18,46.03876531173069,0.2634164278552049,38.888888888888886,3,0.16666666666666666,Ba_4,F,51_R,TCTAGTCTAAATGGATCTTTA,21,42.44892069505903,3.85326104452686,28.57142857142857,3,0.2857142857142857,R,S6,A0706,Ba,,0
38946,51_F,TATTCGTCGCATGGAAAT,51,18,46.03876531173069,0.2634164278552049,38.888888888888886,3,0.16666666666666666,Ba_4,F,51_R,TCTAGTCTAAATGGATCTTTA,21,42.44892069505903,3.85326104452686,28.57142857142857,3,0.2857142857142857,R,S144,BA-BaBTSeqBa007P2--xx-xxx-xxxx-021-SF,Ba,,679
38872,51_F,TATTCGTCGCATGGAAAT,51,18,46.03876531173069,0.2634164278552049,38.888888888888886,3,0.16666666666666666,Ba_4,F,51_R,TCTAGTCTAAATGGATCTTTA,21,42.44892069505903,3.85326104452686,28.57142857142857,3,0.2857142857142857,R,S2,A0330,Ba,,0
38871,51_F,TATTCGTCGCATGGAAAT,51,18,46.03876531173069,0.2634164278552049,38.888888888888886,3,0.16666666666666666,Ba_4,F,51_R,TCTAGTCTAAATGGATCTTTA,21,42.44892069505903,3.85326104452686,28.57142857142857,3,0.2857142857142857,R,S4,A0605,Ba,,326
38869,51_F,TATTCGTCGCATGGAAAT,51,18,46.03876531173069,0.2634164278552049,38.888888888888886,3,0.16666666666666666,Ba_4,F,51_R,TCTAGTCTAAATGGATCTTTA,21,42.44892069505903,3.85326104452686,28.57142857142857,3,0.2857142857142857,R,S5,A0615,Ba,,0
38772,51_F,TATTCGTCGCATGGAAAT,51,18,46.03876531173069,1.2024571859736852,38.888888888888886,3,0.16666666666666666,Ba_3,F,51_R,TCTAGTCTAAATGGATCTTTA,21,42.44892069505903,2.38738743069797,28.57142857142857,3,0.2857142857142857,R,S5,A0615,Ba,,0
38655,51_F,TATTCGTCGCATGGAAAT,51,18,46.03876531173069,1.2024571859736852,38.888888888888886,3,0.16666666666666666,Ba_1,F,51_R,TCTAGTCTAAATGGATCTTTA,21,42.44892069505903,2.38738743069797,28.57142857142857,3,0.2857142857142857,R,S144,BA-BaBTSeqBa007P2--xx-xxx-xxxx-021-SF,Ba,,679
38581,51_F,TATTCGTCGCATGGAAAT,51,18,46.03876531173069,1.2024571859736852,38.888888888888886,3,0.16666666666666666,Ba_1,F,51_R,TCTAGTCTAAATGGATCTTTA,21,42.44892069505903,2.38738743069797,28.57142857142857,3,0.2857142857142857,R,S2,A0330,Ba,,0
38580,51_F,TATTCGTCGCATGGAAAT,51,18,46.03876531173069,1.2024571859736852,38.888888888888886,3,0.16666666666666666,Ba_1,F,51_R,TCTAGTCTAAATGGATCTTTA,21,42.44892069505903,2.38738743069797,28.57142857142857,3,0.2857142857142857,R,S4,A0605,Ba,,326
38676,51_F,TATTCGTCGCATGGAAAT,51,18,46.03876531173069,1.2024571859736852,38.888888888888886,3,0.16666666666666666,Ba_2,F,51_R,TCTAGTCTAAATGGATCTTTA,21,42.44892069505903,2.38738743069797,28.57142857142857,3,0.2857142857142857,R,S6,A0706,Ba,,0
38752,51_F,TATTCGTCGCATGGAAAT,51,18,46.03876531173069,1.2024571859736852,38.888888888888886,3,0.16666666666666666,Ba_2,F,51_R,TCTAGTCTAAATGGATCTTTA,21,42.44892069505903,2.38738743069797,28.57142857142857,3,0.2857142857142857,R,S144,BA-BaBTSeqBa007P2--xx-xxx-xxxx-021-SF,Ba,,679
38678,51_F,TATTCGTCGCATGGAAAT,51,18,46.03876531173069,1.2024571859736852,38.888888888888886,3,0.16666666666666666,Ba_2,F,51_R,TCTAGTCTAAATGGATCTTTA,21,42.44892069505903,2.38738743069797,28.57142857142857,3,0.2857142857142857,R,S2,A0330,Ba,,0
38677,51_F,TATTCGTCGCATGGAAAT,51,18,46.03876531173069,1.2024571859736852,38.888888888888886,3,0.16666666666666666,Ba_2,F,51_R,TCTAGTCTAAATGGATCTTTA,21,42.44892069505903,2.38738743069797,28.57142857142857,3,0.2857142857142857,R,S4,A0605,Ba,,326
38675,51_F,TATTCGTCGCATGGAAAT,51,18,46.03876531173069,1.2024571859736852,38.888888888888886,3,0.16666666666666666,Ba_2,F,51_R,TCTAGTCTAAATGGATCTTTA,21,42.44892069505903,2.38738743069797,28.57142857142857,3,0.2857142857142857,R,S5,A0615,Ba,,0
38579,51_F,TATTCGTCGCATGGAAAT,51,18,46.03876531173069,1.2024571859736852,38.888888888888886,3,0.16666666666666666,Ba_1,F,51_R,TCTAGTCTAAATGGATCTTTA,21,42.44892069505903,2.38738743069797,28.57142857142857,3,0.2857142857142857,R,S6,A0706,Ba,,0