,Primer_Name_L,Seq_L,Amplicon,Primer_Length_L,Tm_L,Delta Tm_L,GC_Content_L,Length_Longest_Homopolymer_L,Percent_Homopolymer_L,exp,flank_L,Primer_Name_R,Seq_R,Primer_Length_R,Tm_R,Delta Tm_R,GC_Content_R,Length_Longest_Homopolymer_R,Percent_Homopolymer_R,flank_R,sample_id,sample_name,species,strain,n_reads
64400,12_F,GAAATTATCGATGGTGCGA,12,19,47.69356845737053,2.8572603316135314,42.105263157894726,3,0.15789473684210525,Ba_1,F,12_R,ATTTAACAGGATTGGTCATT,20,44.32778176573077,0.5085263600262238,30.0,3,0.15,R,S5,A0615,Ba,,0
64399,12_F,GAAATTATCGATGGTGCGA,12,19,47.69356845737053,2.8572603316135314,42.105263157894726,3,0.15789473684210525,Ba_1,F,12_R,ATTTAACAGGATTGGTCATT,20,44.32778176573077,0.5085263600262238,30.0,3,0.15,R,S4,A0605,Ba,,82
64589,12_F,GAAATTATCGATGGTGCGA,12,19,47.69356845737053,2.8572603316135314,42.105263157894726,3,0.15789473684210525,Ba_2,F,12_R,ATTTAACAGGATTGGTCATT,20,44.32778176573077,0.5085263600262238,30.0,3,0.15,R,S6,A0706,Ba,,0
64588,12_F,GAAATTATCGATGGTGCGA,12,19,47.69356845737053,2.8572603316135314,42.105263157894726,3,0.15789473684210525,Ba_2,F,12_R,ATTTAACAGGATTGGTCATT,20,44.32778176573077,0.5085263600262238,30.0,3,0.15,R,S5,A0615,Ba,,0
64587,12_F,GAAATTATCGATGGTGCGA,12,19,47.69356845737053,2.8572603316135314,42.105263157894726,3,0.15789473684210525,Ba_2,F,12_R,ATTTAACAGGATTGGTCATT,20,44.32778176573077,0.5085263600262238,30.0,3,0.15,R,S4,A0605,Ba,,82
64586,12_F,GAAATTATCGATGGTGCGA,12,19,47.69356845737053,2.8572603316135314,42.105263157894726,3,0.15789473684210525,Ba_2,F,12_R,ATTTAACAGGATTGGTCATT,20,44.32778176573077,0.5085263600262238,30.0,3,0.15,R,S2,A0330,Ba,,0
64398,12_F,GAAATTATCGATGGTGCGA,12,19,47.69356845737053,2.8572603316135314,42.105263157894726,3,0.15789473684210525,Ba_1,F,12_R,ATTTAACAGGATTGGTCATT,20,44.32778176573077,0.5085263600262238,30.0,3,0.15,R,S2,A0330,Ba,,0
65218,12_F,GCGAAGATGAAGGATGAGTCTT,12,22,52.38534995542665,5.9128325083134365,45.45454545454545,2,0.0,Ba_5_V35,F,12_R,GGATTGGTCATTGGTGGTATTT,22,50.724271394865006,4.251753947751801,40.90909090909091,3,0.13636363636363635,R,S144,BA-BaBTSeqBa007P2--xx-xxx-xxxx-021-SF,Ba,,526
65153,12_F,GCGAAGATGAAGGATGAGTCTT,12,22,52.38534995542665,5.9128325083134365,45.45454545454545,2,0.0,Ba_5_V35,F,12_R,GGATTGGTCATTGGTGGTATTT,22,50.724271394865006,4.251753947751801,40.90909090909091,3,0.13636363636363635,R,S6,A0706,Ba,,0
65152,12_F,GCGAAGATGAAGGATGAGTCTT,12,22,52.38534995542665,5.9128325083134365,45.45454545454545,2,0.0,Ba_5_V35,F,12_R,GGATTGGTCATTGGTGGTATTT,22,50.724271394865006,4.251753947751801,40.90909090909091,3,0.13636363636363635,R,S5,A0615,Ba,,0
65151,12_F,GCGAAGATGAAGGATGAGTCTT,12,22,52.38534995542665,5.9128325083134365,45.45454545454545,2,0.0,Ba_5_V35,F,12_R,GGATTGGTCATTGGTGGTATTT,22,50.724271394865006,4.251753947751801,40.90909090909091,3,0.13636363636363635,R,S4,A0605,Ba,,82
65150,12_F,GCGAAGATGAAGGATGAGTCTT,12,22,52.38534995542665,5.9128325083134365,45.45454545454545,2,0.0,Ba_5_V35,F,12_R,GGATTGGTCATTGGTGGTATTT,22,50.724271394865006,4.251753947751801,40.90909090909091,3,0.13636363636363635,R,S2,A0330,Ba,,0
65030,12_F,GCGAAGATGAAGGATGAGTCTT,12,22,52.38534995542665,6.083168215840758,45.45454545454545,2,0.0,Ba_4,F,12_R,GGATTGGTCATTGGTGGTATTT,22,50.724271394865006,4.422089655279123,40.90909090909091,3,0.13636363636363635,R,S144,BA-BaBTSeqBa007P2--xx-xxx-xxxx-021-SF,Ba,,526
64842,12_F,GAAATTATCGATGGTGCGA,12,19,47.69356845737053,2.8572603316135314,42.105263157894726,3,0.15789473684210525,Ba_3,F,12_R,ATTTAACAGGATTGGTCATT,20,44.32778176573077,0.5085263600262238,30.0,3,0.15,R,S144,BA-BaBTSeqBa007P2--xx-xxx-xxxx-021-SF,Ba,,526
64965,12_F,GCGAAGATGAAGGATGAGTCTT,12,22,52.38534995542665,6.083168215840758,45.45454545454545,2,0.0,Ba_4,F,12_R,GGATTGGTCATTGGTGGTATTT,22,50.724271394865006,4.422089655279123,40.90909090909091,3,0.13636363636363635,R,S6,A0706,Ba,,0
64964,12_F,GCGAAGATGAAGGATGAGTCTT,12,22,52.38534995542665,6.083168215840758,45.45454545454545,2,0.0,Ba_4,F,12_R,GGATTGGTCATTGGTGGTATTT,22,50.724271394865006,4.422089655279123,40.90909090909091,3,0.13636363636363635,R,S5,A0615,Ba,,0
64963,12_F,GCGAAGATGAAGGATGAGTCTT,12,22,52.38534995542665,6.083168215840758,45.45454545454545,2,0.0,Ba_4,F,12_R,GGATTGGTCATTGGTGGTATTT,22,50.724271394865006,4.422089655279123,40.90909090909091,3,0.13636363636363635,R,S4,A0605,Ba,,82
64962,12_F,GCGAAGATGAAGGATGAGTCTT,12,22,52.38534995542665,6.083168215840758,45.45454545454545,2,0.0,Ba_4,F,12_R,GGATTGGTCATTGGTGGTATTT,22,50.724271394865006,4.422089655279123,40.90909090909091,3,0.13636363636363635,R,S2,A0330,Ba,,0
67221,12_F,TCCACTGTACCAGTTGGAATA,12,21,50.05253477119164,1.1136768834924808,42.857142857142854,2,0.0,Yp_1_V2,F,12_R,TTCGGCGCGCAGACTATC,18,54.726346971330315,3.5601353166462038,61.111111111111114,2,0.0,R,S6,A0706,Ba,,0
67220,12_F,TCCACTGTACCAGTTGGAATA,12,21,50.05253477119164,1.1136768834924808,42.857142857142854,2,0.0,Yp_1_V2,F,12_R,TTCGGCGCGCAGACTATC,18,54.726346971330315,3.5601353166462038,61.111111111111114,2,0.0,R,S5,A0615,Ba,,0
67219,12_F,TCCACTGTACCAGTTGGAATA,12,21,50.05253477119164,1.1136768834924808,42.857142857142854,2,0.0,Yp_1_V2,F,12_R,TTCGGCGCGCAGACTATC,18,54.726346971330315,3.5601353166462038,61.111111111111114,2,0.0,R,S4,A0605,Ba,,82
67218,12_F,TCCACTGTACCAGTTGGAATA,12,21,50.05253477119164,1.1136768834924808,42.857142857142854,2,0.0,Yp_1_V2,F,12_R,TTCGGCGCGCAGACTATC,18,54.726346971330315,3.5601353166462038,61.111111111111114,2,0.0,R,S2,A0330,Ba,,0
67286,12_F,TCCACTGTACCAGTTGGAATA,12,21,50.05253477119164,1.1136768834924808,42.857142857142854,2,0.0,Yp_1_V2,F,12_R,TTCGGCGCGCAGACTATC,18,54.726346971330315,3.5601353166462038,61.111111111111114,2,0.0,R,S144,BA-BaBTSeqBa007P2--xx-xxx-xxxx-021-SF,Ba,,526
67033,12_F,CATTATGTTCAGCAGCCA,12,18,46.971384056249924,3.3013917831600916,44.444444444444436,2,0.0,Ft_2,F,12_R,TATTGGTACTGATGTTGCT,19,45.328370435837364,4.944405403572637,36.84210526315789,2,0.0,R,S6,A0706,Ba,,0
67032,12_F,CATTATGTTCAGCAGCCA,12,18,46.971384056249924,3.3013917831600916,44.444444444444436,2,0.0,Ft_2,F,12_R,TATTGGTACTGATGTTGCT,19,45.328370435837364,4.944405403572637,36.84210526315789,2,0.0,R,S5,A0615,Ba,,0
67031,12_F,CATTATGTTCAGCAGCCA,12,18,46.971384056249924,3.3013917831600916,44.444444444444436,2,0.0,Ft_2,F,12_R,TATTGGTACTGATGTTGCT,19,45.328370435837364,4.944405403572637,36.84210526315789,2,0.0,R,S4,A0605,Ba,,82
67030,12_F,CATTATGTTCAGCAGCCA,12,18,46.971384056249924,3.3013917831600916,44.444444444444436,2,0.0,Ft_2,F,12_R,TATTGGTACTGATGTTGCT,19,45.328370435837364,4.944405403572637,36.84210526315789,2,0.0,R,S2,A0330,Ba,,0
67098,12_F,CATTATGTTCAGCAGCCA,12,18,46.971384056249924,3.3013917831600916,44.444444444444436,2,0.0,Ft_2,F,12_R,TATTGGTACTGATGTTGCT,19,45.328370435837364,4.944405403572637,36.84210526315789,2,0.0,R,S144,BA-BaBTSeqBa007P2--xx-xxx-xxxx-021-SF,Ba,,526
67662,12_F,TCCACTGTACCAGTTGGAATA,12,21,50.05253477119164,1.9446954492927588,42.857142857142854,2,0.0,Yp_2,F,12_R,TTCGGCGCGCAGACTATC,18,54.726346971330315,2.7291167508459253,61.111111111111114,2,0.0,R,S144,BA-BaBTSeqBa007P2--xx-xxx-xxxx-021-SF,Ba,,526
67594,12_F,TCCACTGTACCAGTTGGAATA,12,21,50.05253477119164,1.9446954492927588,42.857142857142854,2,0.0,Yp_2,F,12_R,TTCGGCGCGCAGACTATC,18,54.726346971330315,2.7291167508459253,61.111111111111114,2,0.0,R,S2,A0330,Ba,,0
67595,12_F,TCCACTGTACCAGTTGGAATA,12,21,50.05253477119164,1.9446954492927588,42.857142857142854,2,0.0,Yp_2,F,12_R,TTCGGCGCGCAGACTATC,18,54.726346971330315,2.7291167508459253,61.111111111111114,2,0.0,R,S4,A0605,Ba,,82
67596,12_F,TCCACTGTACCAGTTGGAATA,12,21,50.05253477119164,1.9446954492927588,42.857142857142854,2,0.0,Yp_2,F,12_R,TTCGGCGCGCAGACTATC,18,54.726346971330315,2.7291167508459253,61.111111111111114,2,0.0,R,S5,A0615,Ba,,0
67597,12_F,TCCACTGTACCAGTTGGAATA,12,21,50.05253477119164,1.9446954492927588,42.857142857142854,2,0.0,Yp_2,F,12_R,TTCGGCGCGCAGACTATC,18,54.726346971330315,2.7291167508459253,61.111111111111114,2,0.0,R,S6,A0706,Ba,,0
67409,12_F,AAGTTACACACGCCGATACTGC,12,22,55.48526579159585,4.060376038953166,50.0,2,0.0,Yp_1,F,12_R,CAACATAATCCTCAGCAAGCC,21,51.541441121380956,0.11655136873827132,47.61904761904761,2,0.0,R,S6,A0706,Ba,,0
67408,12_F,AAGTTACACACGCCGATACTGC,12,22,55.48526579159585,4.060376038953166,50.0,2,0.0,Yp_1,F,12_R,CAACATAATCCTCAGCAAGCC,21,51.541441121380956,0.11655136873827132,47.61904761904761,2,0.0,R,S5,A0615,Ba,,0
67407,12_F,AAGTTACACACGCCGATACTGC,12,22,55.48526579159585,4.060376038953166,50.0,2,0.0,Yp_1,F,12_R,CAACATAATCCTCAGCAAGCC,21,51.541441121380956,0.11655136873827132,47.61904761904761,2,0.0,R,S4,A0605,Ba,,82
67406,12_F,AAGTTACACACGCCGATACTGC,12,22,55.48526579159585,4.060376038953166,50.0,2,0.0,Yp_1,F,12_R,CAACATAATCCTCAGCAAGCC,21,51.541441121380956,0.11655136873827132,47.61904761904761,2,0.0,R,S2,A0330,Ba,,0
67474,12_F,AAGTTACACACGCCGATACTGC,12,22,55.48526579159585,4.060376038953166,50.0,2,0.0,Yp_1,F,12_R,CAACATAATCCTCAGCAAGCC,21,51.541441121380956,0.11655136873827132,47.61904761904761,2,0.0,R,S144,BA-BaBTSeqBa007P2--xx-xxx-xxxx-021-SF,Ba,,526
69327,13_F,CGAATCTCTGGTGCATCT,13,18,48.411482107195866,1.6457057366180263,50.0,2,0.0,Ft_2_V2,F,13_R,TGTATGTGATCTAGTATATCCT,22,44.52848414883505,5.5287036949788435,31.818181818181817,2,0.0,R,S144,BA-BaBTSeqBa007P2--xx-xxx-xxxx-021-SF,Ba,,221
69252,13_F,CGAATCTCTGGTGCATCT,13,18,48.411482107195866,1.6457057366180263,50.0,2,0.0,Ft_2_V2,F,13_R,TGTATGTGATCTAGTATATCCT,22,44.52848414883505,5.5287036949788435,31.818181818181817,2,0.0,R,S4,A0605,Ba,,1639
69250,13_F,CGAATCTCTGGTGCATCT,13,18,48.411482107195866,1.6457057366180263,50.0,2,0.0,Ft_2_V2,F,13_R,TGTATGTGATCTAGTATATCCT,22,44.52848414883505,5.5287036949788435,31.818181818181817,2,0.0,R,S5,A0615,Ba,,0
69251,13_F,CGAATCTCTGGTGCATCT,13,18,48.411482107195866,1.6457057366180263,50.0,2,0.0,Ft_2_V2,F,13_R,TGTATGTGATCTAGTATATCCT,22,44.52848414883505,5.5287036949788435,31.818181818181817,2,0.0,R,S6,A0706,Ba,,0
69249,13_F,CGAATCTCTGGTGCATCT,13,18,48.411482107195866,1.6457057366180263,50.0,2,0.0,Ft_2_V2,F,13_R,TGTATGTGATCTAGTATATCCT,22,44.52848414883505,5.5287036949788435,31.818181818181817,2,0.0,R,S2,A0330,Ba,,0
69413,13_F,CGAATCTCTGGTGCATCT,13,18,48.411482107195866,1.8612937322141436,50.0,2,0.0,Ft_2,F,13_R,TGTATGTGATCTAGTATATCCT,22,44.52848414883505,5.74429169057496,31.818181818181817,2,0.0,R,S5,A0615,Ba,,0
69414,13_F,CGAATCTCTGGTGCATCT,13,18,48.411482107195866,1.8612937322141436,50.0,2,0.0,Ft_2,F,13_R,TGTATGTGATCTAGTATATCCT,22,44.52848414883505,5.74429169057496,31.818181818181817,2,0.0,R,S6,A0706,Ba,,0
69415,13_F,CGAATCTCTGGTGCATCT,13,18,48.411482107195866,1.8612937322141436,50.0,2,0.0,Ft_2,F,13_R,TGTATGTGATCTAGTATATCCT,22,44.52848414883505,5.74429169057496,31.818181818181817,2,0.0,R,S4,A0605,Ba,,1639
69412,13_F,CGAATCTCTGGTGCATCT,13,18,48.411482107195866,1.8612937322141436,50.0,2,0.0,Ft_2,F,13_R,TGTATGTGATCTAGTATATCCT,22,44.52848414883505,5.74429169057496,31.818181818181817,2,0.0,R,S2,A0330,Ba,,0
69001,13_F,ACCAGTATCTGACCAATCA,13,19,46.802757745738056,0.4123659150045498,42.105263157894726,2,0.0,Ba_V45,F,13_R,AGTGAAATACTGCGATGTT,19,46.546053458757115,0.6690702019854982,36.84210526315789,3,0.15789473684210525,R,S144,BA-BaBTSeqBa007P2--xx-xxx-xxxx-021-SF,Ba,,221
68923,13_F,ACCAGTATCTGACCAATCA,13,19,46.802757745738056,0.4123659150045498,42.105263157894726,2,0.0,Ba_V45,F,13_R,AGTGAAATACTGCGATGTT,19,46.546053458757115,0.6690702019854982,36.84210526315789,3,0.15789473684210525,R,S2,A0330,Ba,,0
68924,13_F,ACCAGTATCTGACCAATCA,13,19,46.802757745738056,0.4123659150045498,42.105263157894726,2,0.0,Ba_V45,F,13_R,AGTGAAATACTGCGATGTT,19,46.546053458757115,0.6690702019854982,36.84210526315789,3,0.15789473684210525,R,S5,A0615,Ba,,0
68926,13_F,ACCAGTATCTGACCAATCA,13,19,46.802757745738056,0.4123659150045498,42.105263157894726,2,0.0,Ba_V45,F,13_R,AGTGAAATACTGCGATGTT,19,46.546053458757115,0.6690702019854982,36.84210526315789,3,0.15789473684210525,R,S4,A0605,Ba,,1639
68925,13_F,ACCAGTATCTGACCAATCA,13,19,46.802757745738056,0.4123659150045498,42.105263157894726,2,0.0,Ba_V45,F,13_R,AGTGAAATACTGCGATGTT,19,46.546053458757115,0.6690702019854982,36.84210526315789,3,0.15789473684210525,R,S6,A0706,Ba,,0
69164,13_F,CCTTAGCATCATATTCTGGTCTT,13,23,49.95422087710705,1.097929276883029,39.130434782608695,2,0.0,Ft_1,F,13_R,AACTAACTCAGATCTGGTAA,20,44.654412865919646,4.2018787343043655,35.0,2,0.0,R,S144,BA-BaBTSeqBa007P2--xx-xxx-xxxx-021-SF,Ba,,221
69089,13_F,CCTTAGCATCATATTCTGGTCTT,13,23,49.95422087710705,1.097929276883029,39.130434782608695,2,0.0,Ft_1,F,13_R,AACTAACTCAGATCTGGTAA,20,44.654412865919646,4.2018787343043655,35.0,2,0.0,R,S4,A0605,Ba,,1639
69088,13_F,CCTTAGCATCATATTCTGGTCTT,13,23,49.95422087710705,1.097929276883029,39.130434782608695,2,0.0,Ft_1,F,13_R,AACTAACTCAGATCTGGTAA,20,44.654412865919646,4.2018787343043655,35.0,2,0.0,R,S6,A0706,Ba,,0
69087,13_F,CCTTAGCATCATATTCTGGTCTT,13,23,49.95422087710705,1.097929276883029,39.130434782608695,2,0.0,Ft_1,F,13_R,AACTAACTCAGATCTGGTAA,20,44.654412865919646,4.2018787343043655,35.0,2,0.0,R,S5,A0615,Ba,,0
69086,13_F,CCTTAGCATCATATTCTGGTCTT,13,23,49.95422087710705,1.097929276883029,39.130434782608695,2,0.0,Ft_1,F,13_R,AACTAACTCAGATCTGGTAA,20,44.654412865919646,4.2018787343043655,35.0,2,0.0,R,S2,A0330,Ba,,0
69904,13_F,CATATACAACGGATGGCCTGGCC,13,23,57.613400623169184,5.616170402684793,56.52173913043478,2,0.0,Yp_2,F,13_R,CACAAGCCTGTGGCAGTGGT,20,57.37484245645329,5.37761223596889,60.0,2,0.0,R,S4,A0605,Ba,,1639
69903,13_F,CATATACAACGGATGGCCTGGCC,13,23,57.613400623169184,5.616170402684793,56.52173913043478,2,0.0,Yp_2,F,13_R,CACAAGCCTGTGGCAGTGGT,20,57.37484245645329,5.37761223596889,60.0,2,0.0,R,S6,A0706,Ba,,0
69902,13_F,CATATACAACGGATGGCCTGGCC,13,23,57.613400623169184,5.616170402684793,56.52173913043478,2,0.0,Yp_2,F,13_R,CACAAGCCTGTGGCAGTGGT,20,57.37484245645329,5.37761223596889,60.0,2,0.0,R,S5,A0615,Ba,,0
69901,13_F,CATATACAACGGATGGCCTGGCC,13,23,57.613400623169184,5.616170402684793,56.52173913043478,2,0.0,Yp_2,F,13_R,CACAAGCCTGTGGCAGTGGT,20,57.37484245645329,5.37761223596889,60.0,2,0.0,R,S2,A0330,Ba,,0
69816,13_F,CAACGGATGTGTAAACTG,13,18,45.621470675481824,5.803419077160868,44.444444444444436,3,0.16666666666666666,Yp_1,F,13_R,ATGCAGGTCGTCAGTCGCGA,20,58.5330393553109,7.108149602668219,60.0,2,0.0,R,S144,BA-BaBTSeqBa007P2--xx-xxx-xxxx-021-SF,Ba,,221
69979,13_F,CATATACAACGGATGGCCTGGCC,13,23,57.613400623169184,5.616170402684793,56.52173913043478,2,0.0,Yp_2,F,13_R,CACAAGCCTGTGGCAGTGGT,20,57.37484245645329,5.37761223596889,60.0,2,0.0,R,S144,BA-BaBTSeqBa007P2--xx-xxx-xxxx-021-SF,Ba,,221
69578,13_F,CAACGGATGTGTAAACTG,13,18,45.621470675481824,5.544740979202294,44.444444444444436,3,0.16666666666666666,Yp_1_V2,F,13_R,ATGCAGGTCGTCAGTCGCGA,20,58.5330393553109,7.366827700626793,60.0,2,0.0,R,S4,A0605,Ba,,1639
69577,13_F,CAACGGATGTGTAAACTG,13,18,45.621470675481824,5.544740979202294,44.444444444444436,3,0.16666666666666666,Yp_1_V2,F,13_R,ATGCAGGTCGTCAGTCGCGA,20,58.5330393553109,7.366827700626793,60.0,2,0.0,R,S6,A0706,Ba,,0
69576,13_F,CAACGGATGTGTAAACTG,13,18,45.621470675481824,5.544740979202294,44.444444444444436,3,0.16666666666666666,Yp_1_V2,F,13_R,ATGCAGGTCGTCAGTCGCGA,20,58.5330393553109,7.366827700626793,60.0,2,0.0,R,S5,A0615,Ba,,0
69575,13_F,CAACGGATGTGTAAACTG,13,18,45.621470675481824,5.544740979202294,44.444444444444436,3,0.16666666666666666,Yp_1_V2,F,13_R,ATGCAGGTCGTCAGTCGCGA,20,58.5330393553109,7.366827700626793,60.0,2,0.0,R,S2,A0330,Ba,,0
69490,13_F,CGAATCTCTGGTGCATCT,13,18,48.411482107195866,1.8612937322141436,50.0,2,0.0,Ft_2,F,13_R,TGTATGTGATCTAGTATATCCT,22,44.52848414883505,5.74429169057496,31.818181818181817,2,0.0,R,S144,BA-BaBTSeqBa007P2--xx-xxx-xxxx-021-SF,Ba,,221
69738,13_F,CAACGGATGTGTAAACTG,13,18,45.621470675481824,5.803419077160868,44.444444444444436,3,0.16666666666666666,Yp_1,F,13_R,ATGCAGGTCGTCAGTCGCGA,20,58.5330393553109,7.108149602668219,60.0,2,0.0,R,S2,A0330,Ba,,0
69740,13_F,CAACGGATGTGTAAACTG,13,18,45.621470675481824,5.803419077160868,44.444444444444436,3,0.16666666666666666,Yp_1,F,13_R,ATGCAGGTCGTCAGTCGCGA,20,58.5330393553109,7.108149602668219,60.0,2,0.0,R,S6,A0706,Ba,,0
69741,13_F,CAACGGATGTGTAAACTG,13,18,45.621470675481824,5.803419077160868,44.444444444444436,3,0.16666666666666666,Yp_1,F,13_R,ATGCAGGTCGTCAGTCGCGA,20,58.5330393553109,7.108149602668219,60.0,2,0.0,R,S4,A0605,Ba,,1639
69739,13_F,CAACGGATGTGTAAACTG,13,18,45.621470675481824,5.803419077160868,44.444444444444436,3,0.16666666666666666,Yp_1,F,13_R,ATGCAGGTCGTCAGTCGCGA,20,58.5330393553109,7.108149602668219,60.0,2,0.0,R,S5,A0615,Ba,,0
69653,13_F,CAACGGATGTGTAAACTG,13,18,45.621470675481824,5.544740979202294,44.444444444444436,3,0.16666666666666666,Yp_1_V2,F,13_R,ATGCAGGTCGTCAGTCGCGA,20,58.5330393553109,7.366827700626793,60.0,2,0.0,R,S144,BA-BaBTSeqBa007P2--xx-xxx-xxxx-021-SF,Ba,,221
68186,13_F,ACCAGTATCTGACCAATCA,13,19,46.802757745738056,1.9664496199810628,42.105263157894726,2,0.0,Ba_3,F,13_R,AGTGAAATACTGCGATGTT,19,46.546053458757115,1.7097453330001144,36.84210526315789,3,0.15789473684210525,R,S144,BA-BaBTSeqBa007P2--xx-xxx-xxxx-021-SF,Ba,,221
68108,13_F,ACCAGTATCTGACCAATCA,13,19,46.802757745738056,1.9664496199810628,42.105263157894726,2,0.0,Ba_3,F,13_R,AGTGAAATACTGCGATGTT,19,46.546053458757115,1.7097453330001144,36.84210526315789,3,0.15789473684210525,R,S2,A0330,Ba,,0
68110,13_F,ACCAGTATCTGACCAATCA,13,19,46.802757745738056,1.9664496199810628,42.105263157894726,2,0.0,Ba_3,F,13_R,AGTGAAATACTGCGATGTT,19,46.546053458757115,1.7097453330001144,36.84210526315789,3,0.15789473684210525,R,S6,A0706,Ba,,0
68111,13_F,ACCAGTATCTGACCAATCA,13,19,46.802757745738056,1.9664496199810628,42.105263157894726,2,0.0,Ba_3,F,13_R,AGTGAAATACTGCGATGTT,19,46.546053458757115,1.7097453330001144,36.84210526315789,3,0.15789473684210525,R,S4,A0605,Ba,,1639
68109,13_F,ACCAGTATCTGACCAATCA,13,19,46.802757745738056,1.9664496199810628,42.105263157894726,2,0.0,Ba_3,F,13_R,AGTGAAATACTGCGATGTT,19,46.546053458757115,1.7097453330001144,36.84210526315789,3,0.15789473684210525,R,S5,A0615,Ba,,0
68271,13_F,ACCAGTATCTGACCAATCA,13,19,46.802757745738056,0.5005760061521727,42.105263157894726,2,0.0,Ba_4,F,13_R,AGTGAAATACTGCGATGTT,19,46.546053458757115,0.2438717191712243,36.84210526315789,3,0.15789473684210525,R,S2,A0330,Ba,,0
68272,13_F,ACCAGTATCTGACCAATCA,13,19,46.802757745738056,0.5005760061521727,42.105263157894726,2,0.0,Ba_4,F,13_R,AGTGAAATACTGCGATGTT,19,46.546053458757115,0.2438717191712243,36.84210526315789,3,0.15789473684210525,R,S5,A0615,Ba,,0
68273,13_F,ACCAGTATCTGACCAATCA,13,19,46.802757745738056,0.5005760061521727,42.105263157894726,2,0.0,Ba_4,F,13_R,AGTGAAATACTGCGATGTT,19,46.546053458757115,0.2438717191712243,36.84210526315789,3,0.15789473684210525,R,S6,A0706,Ba,,0
68274,13_F,ACCAGTATCTGACCAATCA,13,19,46.802757745738056,0.5005760061521727,42.105263157894726,2,0.0,Ba_4,F,13_R,AGTGAAATACTGCGATGTT,19,46.546053458757115,0.2438717191712243,36.84210526315789,3,0.15789473684210525,R,S4,A0605,Ba,,1639
67860,13_F,ACCAGTATCTGACCAATCA,13,19,46.802757745738056,1.9664496199810628,42.105263157894726,2,0.0,Ba_1,F,13_R,AGTGAAATACTGCGATGTT,19,46.546053458757115,1.7097453330001144,36.84210526315789,3,0.15789473684210525,R,S144,BA-BaBTSeqBa007P2--xx-xxx-xxxx-021-SF,Ba,,221
67782,13_F,ACCAGTATCTGACCAATCA,13,19,46.802757745738056,1.9664496199810628,42.105263157894726,2,0.0,Ba_1,F,13_R,AGTGAAATACTGCGATGTT,19,46.546053458757115,1.7097453330001144,36.84210526315789,3,0.15789473684210525,R,S2,A0330,Ba,,0
67783,13_F,ACCAGTATCTGACCAATCA,13,19,46.802757745738056,1.9664496199810628,42.105263157894726,2,0.0,Ba_1,F,13_R,AGTGAAATACTGCGATGTT,19,46.546053458757115,1.7097453330001144,36.84210526315789,3,0.15789473684210525,R,S5,A0615,Ba,,0
67784,13_F,ACCAGTATCTGACCAATCA,13,19,46.802757745738056,1.9664496199810628,42.105263157894726,2,0.0,Ba_1,F,13_R,AGTGAAATACTGCGATGTT,19,46.546053458757115,1.7097453330001144,36.84210526315789,3,0.15789473684210525,R,S6,A0706,Ba,,0
67785,13_F,ACCAGTATCTGACCAATCA,13,19,46.802757745738056,1.9664496199810628,42.105263157894726,2,0.0,Ba_1,F,13_R,AGTGAAATACTGCGATGTT,19,46.546053458757115,1.7097453330001144,36.84210526315789,3,0.15789473684210525,R,S4,A0605,Ba,,1639