,Primer_Name_L,Seq_L,Amplicon,Primer_Length_L,Tm_L,Delta Tm_L,GC_Content_L,Length_Longest_Homopolymer_L,Percent_Homopolymer_L,exp,flank_L,Primer_Name_R,Seq_R,Primer_Length_R,Tm_R,Delta Tm_R,GC_Content_R,Length_Longest_Homopolymer_R,Percent_Homopolymer_R,flank_R,sample_id,sample_name,species,strain,n_reads
32064,27_F,CAAGTGCAAGATCAAGTA,27,18,43.87786169633915,0.9584464294178474,38.888888888888886,2,0.0,Ba_2,F,27_R,GATTTTGTTCTGGGTTATC,19,43.231366926027825,1.6049411997291827,36.84210526315789,4,0.3684210526315789,R,S144,BA-BaBTSeqBa007P2--xx-xxx-xxxx-021-SF,Ba,,414
31985,27_F,CAAGTGCAAGATCAAGTA,27,18,43.87786169633915,0.9584464294178474,38.888888888888886,2,0.0,Ba_2,F,27_R,GATTTTGTTCTGGGTTATC,19,43.231366926027825,1.6049411997291827,36.84210526315789,4,0.3684210526315789,R,S4,A0605,Ba,,3826
31986,27_F,CAAGTGCAAGATCAAGTA,27,18,43.87786169633915,0.9584464294178474,38.888888888888886,2,0.0,Ba_2,F,27_R,GATTTTGTTCTGGGTTATC,19,43.231366926027825,1.6049411997291827,36.84210526315789,4,0.3684210526315789,R,S5,A0615,Ba,,28
31987,27_F,CAAGTGCAAGATCAAGTA,27,18,43.87786169633915,0.9584464294178474,38.888888888888886,2,0.0,Ba_2,F,27_R,GATTTTGTTCTGGGTTATC,19,43.231366926027825,1.6049411997291827,36.84210526315789,4,0.3684210526315789,R,S2,A0330,Ba,,21
31988,27_F,CAAGTGCAAGATCAAGTA,27,18,43.87786169633915,0.9584464294178474,38.888888888888886,2,0.0,Ba_2,F,27_R,GATTTTGTTCTGGGTTATC,19,43.231366926027825,1.6049411997291827,36.84210526315789,4,0.3684210526315789,R,S6,A0706,Ba,,13
32608,27_F,CAAGTGCAAGATCAAGTA,27,18,43.87786169633915,2.4243200432467376,38.888888888888886,2,0.0,Ba_5_V3,F,27_R,GATTTTGTTCTGGGTTATC,19,43.231366926027825,3.070814813558073,36.84210526315789,4,0.3684210526315789,R,S144,BA-BaBTSeqBa007P2--xx-xxx-xxxx-021-SF,Ba,,414
32532,27_F,CAAGTGCAAGATCAAGTA,27,18,43.87786169633915,2.4243200432467376,38.888888888888886,2,0.0,Ba_5_V3,F,27_R,GATTTTGTTCTGGGTTATC,19,43.231366926027825,3.070814813558073,36.84210526315789,4,0.3684210526315789,R,S6,A0706,Ba,,13
32531,27_F,CAAGTGCAAGATCAAGTA,27,18,43.87786169633915,2.4243200432467376,38.888888888888886,2,0.0,Ba_5_V3,F,27_R,GATTTTGTTCTGGGTTATC,19,43.231366926027825,3.070814813558073,36.84210526315789,4,0.3684210526315789,R,S2,A0330,Ba,,21
32530,27_F,CAAGTGCAAGATCAAGTA,27,18,43.87786169633915,2.4243200432467376,38.888888888888886,2,0.0,Ba_5_V3,F,27_R,GATTTTGTTCTGGGTTATC,19,43.231366926027825,3.070814813558073,36.84210526315789,4,0.3684210526315789,R,S5,A0615,Ba,,28
32529,27_F,CAAGTGCAAGATCAAGTA,27,18,43.87786169633915,2.4243200432467376,38.888888888888886,2,0.0,Ba_5_V3,F,27_R,GATTTTGTTCTGGGTTATC,19,43.231366926027825,3.070814813558073,36.84210526315789,4,0.3684210526315789,R,S4,A0605,Ba,,3826
32744,27_F,GGTTCAGCCTATAACAGTTCCTATTC,27,26,53.343553811778456,6.100490186262852,42.307692307692314,2,0.0,Ba_6_V4,F,27_R,TTATCAGCAGCAGGTTTAGTTGC,23,53.70249636288287,6.459432737367258,43.47826086956522,3,0.13043478260869565,R,S144,BA-BaBTSeqBa007P2--xx-xxx-xxxx-021-SF,Ba,,414
32665,27_F,GGTTCAGCCTATAACAGTTCCTATTC,27,26,53.343553811778456,6.100490186262852,42.307692307692314,2,0.0,Ba_6_V4,F,27_R,TTATCAGCAGCAGGTTTAGTTGC,23,53.70249636288287,6.459432737367258,43.47826086956522,3,0.13043478260869565,R,S4,A0605,Ba,,3826
32668,27_F,GGTTCAGCCTATAACAGTTCCTATTC,27,26,53.343553811778456,6.100490186262852,42.307692307692314,2,0.0,Ba_6_V4,F,27_R,TTATCAGCAGCAGGTTTAGTTGC,23,53.70249636288287,6.459432737367258,43.47826086956522,3,0.13043478260869565,R,S6,A0706,Ba,,13
32667,27_F,GGTTCAGCCTATAACAGTTCCTATTC,27,26,53.343553811778456,6.100490186262852,42.307692307692314,2,0.0,Ba_6_V4,F,27_R,TTATCAGCAGCAGGTTTAGTTGC,23,53.70249636288287,6.459432737367258,43.47826086956522,3,0.13043478260869565,R,S2,A0330,Ba,,21
32666,27_F,GGTTCAGCCTATAACAGTTCCTATTC,27,26,53.343553811778456,6.100490186262852,42.307692307692314,2,0.0,Ba_6_V4,F,27_R,TTATCAGCAGCAGGTTTAGTTGC,23,53.70249636288287,6.459432737367258,43.47826086956522,3,0.13043478260869565,R,S5,A0615,Ba,,28
32396,27_F,CAAGTGCAAGATCAAGTA,27,18,43.87786169633915,2.5946557507740597,38.888888888888886,2,0.0,Ba_5_V35,F,27_R,GATTTTGTTCTGGGTTATC,19,43.231366926027825,3.2411505210853946,36.84210526315789,4,0.3684210526315789,R,S6,A0706,Ba,,13
32394,27_F,CAAGTGCAAGATCAAGTA,27,18,43.87786169633915,2.5946557507740597,38.888888888888886,2,0.0,Ba_5_V35,F,27_R,GATTTTGTTCTGGGTTATC,19,43.231366926027825,3.2411505210853946,36.84210526315789,4,0.3684210526315789,R,S5,A0615,Ba,,28
32393,27_F,CAAGTGCAAGATCAAGTA,27,18,43.87786169633915,2.5946557507740597,38.888888888888886,2,0.0,Ba_5_V35,F,27_R,GATTTTGTTCTGGGTTATC,19,43.231366926027825,3.2411505210853946,36.84210526315789,4,0.3684210526315789,R,S4,A0605,Ba,,3826
32395,27_F,CAAGTGCAAGATCAAGTA,27,18,43.87786169633915,2.5946557507740597,38.888888888888886,2,0.0,Ba_5_V35,F,27_R,GATTTTGTTCTGGGTTATC,19,43.231366926027825,3.2411505210853946,36.84210526315789,4,0.3684210526315789,R,S2,A0330,Ba,,21
32336,27_F,CAAGTGCAAGATCAAGTA,27,18,43.87786169633915,2.4243200432467376,38.888888888888886,2,0.0,Ba_4,F,27_R,GATTTTGTTCTGGGTTATC,19,43.231366926027825,3.070814813558073,36.84210526315789,4,0.3684210526315789,R,S144,BA-BaBTSeqBa007P2--xx-xxx-xxxx-021-SF,Ba,,414
32472,27_F,CAAGTGCAAGATCAAGTA,27,18,43.87786169633915,2.5946557507740597,38.888888888888886,2,0.0,Ba_5_V35,F,27_R,GATTTTGTTCTGGGTTATC,19,43.231366926027825,3.2411505210853946,36.84210526315789,4,0.3684210526315789,R,S144,BA-BaBTSeqBa007P2--xx-xxx-xxxx-021-SF,Ba,,414
87994,28_F,AAAGACATCTTGCGTAATGA,28,20,47.210552021127796,0.908370281541906,35.0,3,0.15,Ba_5_V3,F,28_R,ACTTTTTCCAAAATGGGAT,19,44.312325114576765,1.989856625009125,31.578947368421048,5,0.631578947368421,R,S6,A0706,Ba,,0
87993,28_F,AAAGACATCTTGCGTAATGA,28,20,47.210552021127796,0.908370281541906,35.0,3,0.15,Ba_5_V3,F,28_R,ACTTTTTCCAAAATGGGAT,19,44.312325114576765,1.989856625009125,31.578947368421048,5,0.631578947368421,R,S5,A0615,Ba,,1
87992,28_F,AAAGACATCTTGCGTAATGA,28,20,47.210552021127796,0.908370281541906,35.0,3,0.15,Ba_5_V3,F,28_R,ACTTTTTCCAAAATGGGAT,19,44.312325114576765,1.989856625009125,31.578947368421048,5,0.631578947368421,R,S2,A0330,Ba,,1
87991,28_F,AAAGACATCTTGCGTAATGA,28,20,47.210552021127796,0.908370281541906,35.0,3,0.15,Ba_5_V3,F,28_R,ACTTTTTCCAAAATGGGAT,19,44.312325114576765,1.989856625009125,31.578947368421048,5,0.631578947368421,R,S4,A0605,Ba,,1073
88126,28_F,AAAGACATCTTGCGTAATGA,28,20,47.210552021127796,0.032511604387813975,35.0,3,0.15,Ba_6_V4,F,28_R,ACTTTTTCCAAAATGGGAT,19,44.312325114576765,2.9307385109388453,31.578947368421048,5,0.631578947368421,R,S6,A0706,Ba,,0
88125,28_F,AAAGACATCTTGCGTAATGA,28,20,47.210552021127796,0.032511604387813975,35.0,3,0.15,Ba_6_V4,F,28_R,ACTTTTTCCAAAATGGGAT,19,44.312325114576765,2.9307385109388453,31.578947368421048,5,0.631578947368421,R,S5,A0615,Ba,,1
88124,28_F,AAAGACATCTTGCGTAATGA,28,20,47.210552021127796,0.032511604387813975,35.0,3,0.15,Ba_6_V4,F,28_R,ACTTTTTCCAAAATGGGAT,19,44.312325114576765,2.9307385109388453,31.578947368421048,5,0.631578947368421,R,S2,A0330,Ba,,1
88123,28_F,AAAGACATCTTGCGTAATGA,28,20,47.210552021127796,0.032511604387813975,35.0,3,0.15,Ba_6_V4,F,28_R,ACTTTTTCCAAAATGGGAT,19,44.312325114576765,2.9307385109388453,31.578947368421048,5,0.631578947368421,R,S4,A0605,Ba,,1073
88075,28_F,AAAGACATCTTGCGTAATGA,28,20,47.210552021127796,0.908370281541906,35.0,3,0.15,Ba_5_V3,F,28_R,ACTTTTTCCAAAATGGGAT,19,44.312325114576765,1.989856625009125,31.578947368421048,5,0.631578947368421,R,S144,BA-BaBTSeqBa007P2--xx-xxx-xxxx-021-SF,Ba,,203
87861,28_F,AAAGACATCTTGCGTAATGA,28,20,47.210552021127796,0.7380345740145842,35.0,3,0.15,Ba_5_V35,F,28_R,ACTTTTTCCAAAATGGGAT,19,44.312325114576765,2.1601923325364467,31.578947368421048,5,0.631578947368421,R,S5,A0615,Ba,,1
87860,28_F,AAAGACATCTTGCGTAATGA,28,20,47.210552021127796,0.7380345740145842,35.0,3,0.15,Ba_5_V35,F,28_R,ACTTTTTCCAAAATGGGAT,19,44.312325114576765,2.1601923325364467,31.578947368421048,5,0.631578947368421,R,S2,A0330,Ba,,1
87859,28_F,AAAGACATCTTGCGTAATGA,28,20,47.210552021127796,0.7380345740145842,35.0,3,0.15,Ba_5_V35,F,28_R,ACTTTTTCCAAAATGGGAT,19,44.312325114576765,2.1601923325364467,31.578947368421048,5,0.631578947368421,R,S4,A0605,Ba,,1073
87862,28_F,AAAGACATCTTGCGTAATGA,28,20,47.210552021127796,0.7380345740145842,35.0,3,0.15,Ba_5_V35,F,28_R,ACTTTTTCCAAAATGGGAT,19,44.312325114576765,2.1601923325364467,31.578947368421048,5,0.631578947368421,R,S6,A0706,Ba,,0
87811,28_F,AAAGACATCTTGCGTAATGA,28,20,47.210552021127796,0.908370281541906,35.0,3,0.15,Ba_4,F,28_R,ACTTTTTCCAAAATGGGAT,19,44.312325114576765,1.989856625009125,31.578947368421048,5,0.631578947368421,R,S144,BA-BaBTSeqBa007P2--xx-xxx-xxxx-021-SF,Ba,,203
87943,28_F,AAAGACATCTTGCGTAATGA,28,20,47.210552021127796,0.7380345740145842,35.0,3,0.15,Ba_5_V35,F,28_R,ACTTTTTCCAAAATGGGAT,19,44.312325114576765,2.1601923325364467,31.578947368421048,5,0.631578947368421,R,S144,BA-BaBTSeqBa007P2--xx-xxx-xxxx-021-SF,Ba,,203
88388,28_F,TGTCATGAATATTGCCACG,28,19,47.82253617876329,3.3436754759208114,42.105263157894726,2,0.0,Yp_1_V2,F,28_R,TTAAGCAATTCAACGGATTCA,21,48.32447734484356,2.841734309840554,33.33333333333333,2,0.0,R,S2,A0330,Ba,,1
88389,28_F,TGTCATGAATATTGCCACG,28,19,47.82253617876329,3.3436754759208114,42.105263157894726,2,0.0,Yp_1_V2,F,28_R,TTAAGCAATTCAACGGATTCA,21,48.32447734484356,2.841734309840554,33.33333333333333,2,0.0,R,S5,A0615,Ba,,1
88390,28_F,TGTCATGAATATTGCCACG,28,19,47.82253617876329,3.3436754759208114,42.105263157894726,2,0.0,Yp_1_V2,F,28_R,TTAAGCAATTCAACGGATTCA,21,48.32447734484356,2.841734309840554,33.33333333333333,2,0.0,R,S6,A0706,Ba,,0
88387,28_F,TGTCATGAATATTGCCACG,28,19,47.82253617876329,3.3436754759208114,42.105263157894726,2,0.0,Yp_1_V2,F,28_R,TTAAGCAATTCAACGGATTCA,21,48.32447734484356,2.841734309840554,33.33333333333333,2,0.0,R,S4,A0605,Ba,,1073
88255,28_F,AAAGACATCTTGCGTAATGA,28,20,47.210552021127796,0.004571639614816547,35.0,3,0.15,Ba_V45,F,28_R,ACTTTTTCCAAAATGGGAT,19,44.312325114576765,2.9027985461658474,31.578947368421048,5,0.631578947368421,R,S4,A0605,Ba,,1073
88256,28_F,AAAGACATCTTGCGTAATGA,28,20,47.210552021127796,0.004571639614816547,35.0,3,0.15,Ba_V45,F,28_R,ACTTTTTCCAAAATGGGAT,19,44.312325114576765,2.9027985461658474,31.578947368421048,5,0.631578947368421,R,S2,A0330,Ba,,1
88257,28_F,AAAGACATCTTGCGTAATGA,28,20,47.210552021127796,0.004571639614816547,35.0,3,0.15,Ba_V45,F,28_R,ACTTTTTCCAAAATGGGAT,19,44.312325114576765,2.9027985461658474,31.578947368421048,5,0.631578947368421,R,S5,A0615,Ba,,1
88258,28_F,AAAGACATCTTGCGTAATGA,28,20,47.210552021127796,0.004571639614816547,35.0,3,0.15,Ba_V45,F,28_R,ACTTTTTCCAAAATGGGAT,19,44.312325114576765,2.9027985461658474,31.578947368421048,5,0.631578947368421,R,S6,A0706,Ba,,0
88339,28_F,AAAGACATCTTGCGTAATGA,28,20,47.210552021127796,0.004571639614816547,35.0,3,0.15,Ba_V45,F,28_R,ACTTTTTCCAAAATGGGAT,19,44.312325114576765,2.9027985461658474,31.578947368421048,5,0.631578947368421,R,S144,BA-BaBTSeqBa007P2--xx-xxx-xxxx-021-SF,Ba,,203
88207,28_F,AAAGACATCTTGCGTAATGA,28,20,47.210552021127796,0.032511604387813975,35.0,3,0.15,Ba_6_V4,F,28_R,ACTTTTTCCAAAATGGGAT,19,44.312325114576765,2.9307385109388453,31.578947368421048,5,0.631578947368421,R,S144,BA-BaBTSeqBa007P2--xx-xxx-xxxx-021-SF,Ba,,203
88471,28_F,TGTCATGAATATTGCCACG,28,19,47.82253617876329,3.3436754759208114,42.105263157894726,2,0.0,Yp_1_V2,F,28_R,TTAAGCAATTCAACGGATTCA,21,48.32447734484356,2.841734309840554,33.33333333333333,2,0.0,R,S144,BA-BaBTSeqBa007P2--xx-xxx-xxxx-021-SF,Ba,,203
88519,28_F,TGTCATGAATATTGCCACG,28,19,47.82253617876329,3.602353573879384,42.105263157894726,2,0.0,Yp_1,F,28_R,TTAAGCAATTCAACGGATTCA,21,48.32447734484356,3.1004124077991264,33.33333333333333,2,0.0,R,S4,A0605,Ba,,1073
88520,28_F,TGTCATGAATATTGCCACG,28,19,47.82253617876329,3.602353573879384,42.105263157894726,2,0.0,Yp_1,F,28_R,TTAAGCAATTCAACGGATTCA,21,48.32447734484356,3.1004124077991264,33.33333333333333,2,0.0,R,S2,A0330,Ba,,1
88521,28_F,TGTCATGAATATTGCCACG,28,19,47.82253617876329,3.602353573879384,42.105263157894726,2,0.0,Yp_1,F,28_R,TTAAGCAATTCAACGGATTCA,21,48.32447734484356,3.1004124077991264,33.33333333333333,2,0.0,R,S5,A0615,Ba,,1
88522,28_F,TGTCATGAATATTGCCACG,28,19,47.82253617876329,3.602353573879384,42.105263157894726,2,0.0,Yp_1,F,28_R,TTAAGCAATTCAACGGATTCA,21,48.32447734484356,3.1004124077991264,33.33333333333333,2,0.0,R,S6,A0706,Ba,,0
87334,28_F,AAAGACATCTTGCGTAATGA,28,20,47.210552021127796,2.374243895370796,35.0,3,0.15,Ba_1,F,28_R,ACTTTTTCCAAAATGGGAT,19,44.312325114576765,0.5239830111802348,31.578947368421048,5,0.631578947368421,R,S6,A0706,Ba,,0
87333,28_F,AAAGACATCTTGCGTAATGA,28,20,47.210552021127796,2.374243895370796,35.0,3,0.15,Ba_1,F,28_R,ACTTTTTCCAAAATGGGAT,19,44.312325114576765,0.5239830111802348,31.578947368421048,5,0.631578947368421,R,S5,A0615,Ba,,1
87332,28_F,AAAGACATCTTGCGTAATGA,28,20,47.210552021127796,2.374243895370796,35.0,3,0.15,Ba_1,F,28_R,ACTTTTTCCAAAATGGGAT,19,44.312325114576765,0.5239830111802348,31.578947368421048,5,0.631578947368421,R,S2,A0330,Ba,,1
87331,28_F,AAAGACATCTTGCGTAATGA,28,20,47.210552021127796,2.374243895370796,35.0,3,0.15,Ba_1,F,28_R,ACTTTTTCCAAAATGGGAT,19,44.312325114576765,0.5239830111802348,31.578947368421048,5,0.631578947368421,R,S4,A0605,Ba,,1073
88603,28_F,TGTCATGAATATTGCCACG,28,19,47.82253617876329,3.602353573879384,42.105263157894726,2,0.0,Yp_1,F,28_R,TTAAGCAATTCAACGGATTCA,21,48.32447734484356,3.1004124077991264,33.33333333333333,2,0.0,R,S144,BA-BaBTSeqBa007P2--xx-xxx-xxxx-021-SF,Ba,,203
88735,28_F,AATGGTGTCATGAATATTGCC,28,21,48.759012273528135,3.238217946956261,38.095238095238095,2,0.0,Yp_2,F,28_R,TTAAGCAATTCAACGGAT,18,43.6934887885691,8.303741431915308,33.33333333333333,2,0.0,R,S144,BA-BaBTSeqBa007P2--xx-xxx-xxxx-021-SF,Ba,,203
88651,28_F,AATGGTGTCATGAATATTGCC,28,21,48.759012273528135,3.238217946956261,38.095238095238095,2,0.0,Yp_2,F,28_R,TTAAGCAATTCAACGGAT,18,43.6934887885691,8.303741431915308,33.33333333333333,2,0.0,R,S4,A0605,Ba,,1073
88652,28_F,AATGGTGTCATGAATATTGCC,28,21,48.759012273528135,3.238217946956261,38.095238095238095,2,0.0,Yp_2,F,28_R,TTAAGCAATTCAACGGAT,18,43.6934887885691,8.303741431915308,33.33333333333333,2,0.0,R,S2,A0330,Ba,,1
88653,28_F,AATGGTGTCATGAATATTGCC,28,21,48.759012273528135,3.238217946956261,38.095238095238095,2,0.0,Yp_2,F,28_R,TTAAGCAATTCAACGGAT,18,43.6934887885691,8.303741431915308,33.33333333333333,2,0.0,R,S5,A0615,Ba,,1
88654,28_F,AATGGTGTCATGAATATTGCC,28,21,48.759012273528135,3.238217946956261,38.095238095238095,2,0.0,Yp_2,F,28_R,TTAAGCAATTCAACGGAT,18,43.6934887885691,8.303741431915308,33.33333333333333,2,0.0,R,S6,A0706,Ba,,0
87679,28_F,AAAGACATCTTGCGTAATGA,28,20,47.210552021127796,2.374243895370796,35.0,3,0.15,Ba_3,F,28_R,ACTTTTTCCAAAATGGGAT,19,44.312325114576765,0.5239830111802348,31.578947368421048,5,0.631578947368421,R,S144,BA-BaBTSeqBa007P2--xx-xxx-xxxx-021-SF,Ba,,203
87598,28_F,AAAGACATCTTGCGTAATGA,28,20,47.210552021127796,2.374243895370796,35.0,3,0.15,Ba_3,F,28_R,ACTTTTTCCAAAATGGGAT,19,44.312325114576765,0.5239830111802348,31.578947368421048,5,0.631578947368421,R,S6,A0706,Ba,,0
87597,28_F,AAAGACATCTTGCGTAATGA,28,20,47.210552021127796,2.374243895370796,35.0,3,0.15,Ba_3,F,28_R,ACTTTTTCCAAAATGGGAT,19,44.312325114576765,0.5239830111802348,31.578947368421048,5,0.631578947368421,R,S5,A0615,Ba,,1
87596,28_F,AAAGACATCTTGCGTAATGA,28,20,47.210552021127796,2.374243895370796,35.0,3,0.15,Ba_3,F,28_R,ACTTTTTCCAAAATGGGAT,19,44.312325114576765,0.5239830111802348,31.578947368421048,5,0.631578947368421,R,S2,A0330,Ba,,1
87595,28_F,AAAGACATCTTGCGTAATGA,28,20,47.210552021127796,2.374243895370796,35.0,3,0.15,Ba_3,F,28_R,ACTTTTTCCAAAATGGGAT,19,44.312325114576765,0.5239830111802348,31.578947368421048,5,0.631578947368421,R,S4,A0605,Ba,,1073
87730,28_F,AAAGACATCTTGCGTAATGA,28,20,47.210552021127796,0.908370281541906,35.0,3,0.15,Ba_4,F,28_R,ACTTTTTCCAAAATGGGAT,19,44.312325114576765,1.989856625009125,31.578947368421048,5,0.631578947368421,R,S6,A0706,Ba,,0
87729,28_F,AAAGACATCTTGCGTAATGA,28,20,47.210552021127796,0.908370281541906,35.0,3,0.15,Ba_4,F,28_R,ACTTTTTCCAAAATGGGAT,19,44.312325114576765,1.989856625009125,31.578947368421048,5,0.631578947368421,R,S5,A0615,Ba,,1
87728,28_F,AAAGACATCTTGCGTAATGA,28,20,47.210552021127796,0.908370281541906,35.0,3,0.15,Ba_4,F,28_R,ACTTTTTCCAAAATGGGAT,19,44.312325114576765,1.989856625009125,31.578947368421048,5,0.631578947368421,R,S2,A0330,Ba,,1
87727,28_F,AAAGACATCTTGCGTAATGA,28,20,47.210552021127796,0.908370281541906,35.0,3,0.15,Ba_4,F,28_R,ACTTTTTCCAAAATGGGAT,19,44.312325114576765,1.989856625009125,31.578947368421048,5,0.631578947368421,R,S4,A0605,Ba,,1073
87466,28_F,AAAGACATCTTGCGTAATGA,28,20,47.210552021127796,2.374243895370796,35.0,3,0.15,Ba_2,F,28_R,ACTTTTTCCAAAATGGGAT,19,44.312325114576765,0.5239830111802348,31.578947368421048,5,0.631578947368421,R,S6,A0706,Ba,,0
87464,28_F,AAAGACATCTTGCGTAATGA,28,20,47.210552021127796,2.374243895370796,35.0,3,0.15,Ba_2,F,28_R,ACTTTTTCCAAAATGGGAT,19,44.312325114576765,0.5239830111802348,31.578947368421048,5,0.631578947368421,R,S2,A0330,Ba,,1
87463,28_F,AAAGACATCTTGCGTAATGA,28,20,47.210552021127796,2.374243895370796,35.0,3,0.15,Ba_2,F,28_R,ACTTTTTCCAAAATGGGAT,19,44.312325114576765,0.5239830111802348,31.578947368421048,5,0.631578947368421,R,S4,A0605,Ba,,1073
87465,28_F,AAAGACATCTTGCGTAATGA,28,20,47.210552021127796,2.374243895370796,35.0,3,0.15,Ba_2,F,28_R,ACTTTTTCCAAAATGGGAT,19,44.312325114576765,0.5239830111802348,31.578947368421048,5,0.631578947368421,R,S5,A0615,Ba,,1
87415,28_F,AAAGACATCTTGCGTAATGA,28,20,47.210552021127796,2.374243895370796,35.0,3,0.15,Ba_1,F,28_R,ACTTTTTCCAAAATGGGAT,19,44.312325114576765,0.5239830111802348,31.578947368421048,5,0.631578947368421,R,S144,BA-BaBTSeqBa007P2--xx-xxx-xxxx-021-SF,Ba,,203
87547,28_F,AAAGACATCTTGCGTAATGA,28,20,47.210552021127796,2.374243895370796,35.0,3,0.15,Ba_2,F,28_R,ACTTTTTCCAAAATGGGAT,19,44.312325114576765,0.5239830111802348,31.578947368421048,5,0.631578947368421,R,S144,BA-BaBTSeqBa007P2--xx-xxx-xxxx-021-SF,Ba,,203
50190,29_F,CGTGTACTTTTAACTAGATTA,29,21,42.78287467044589,2.0534334553111084,28.57142857142857,4,0.19047619047619047,Ba_1,F,29_R,GCCCTCCTCTTTCTATAA,18,43.91164401230276,0.9246641134542416,44.444444444444436,3,0.3333333333333333,R,S2,A0330,Ba,,0
50785,29_F,GACACCGAAGGGATTA,29,16,43.323250719989176,3.891872940753437,50.0,3,0.1875,Ba_V45,F,29_R,ATTCTCCACTTCCTGTTTCT,20,47.95761892956102,0.7424952688184092,40.0,3,0.15,R,S144,BA-BaBTSeqBa007P2--xx-xxx-xxxx-021-SF,Ba,,0
50877,29_F,CCCTCAGTATCAGTAGCC,29,18,47.35694907542205,3.809262579262061,55.555555555555564,3,0.16666666666666666,Yp_1_V2,F,29_R,CGTCATATAGGAGCCGACACCGC,23,59.28450291171004,8.118291257025923,60.86956521739131,2,0.0,R,S144,BA-BaBTSeqBa007P2--xx-xxx-xxxx-021-SF,Ba,,0
50833,29_F,CCCTCAGTATCAGTAGCC,29,18,47.35694907542205,3.809262579262061,55.555555555555564,3,0.16666666666666666,Yp_1_V2,F,29_R,CGTCATATAGGAGCCGACACCGC,23,59.28450291171004,8.118291257025923,60.86956521739131,2,0.0,R,S4,A0605,Ba,,102
50834,29_F,CCCTCAGTATCAGTAGCC,29,18,47.35694907542205,3.809262579262061,55.555555555555564,3,0.16666666666666666,Yp_1_V2,F,29_R,CGTCATATAGGAGCCGACACCGC,23,59.28450291171004,8.118291257025923,60.86956521739131,2,0.0,R,S2,A0330,Ba,,0
50835,29_F,CCCTCAGTATCAGTAGCC,29,18,47.35694907542205,3.809262579262061,55.555555555555564,3,0.16666666666666666,Yp_1_V2,F,29_R,CGTCATATAGGAGCCGACACCGC,23,59.28450291171004,8.118291257025923,60.86956521739131,2,0.0,R,S5,A0615,Ba,,0
50836,29_F,CCCTCAGTATCAGTAGCC,29,18,47.35694907542205,3.809262579262061,55.555555555555564,3,0.16666666666666666,Yp_1_V2,F,29_R,CGTCATATAGGAGCCGACACCGC,23,59.28450291171004,8.118291257025923,60.86956521739131,2,0.0,R,S6,A0706,Ba,,0
50693,29_F,GACACCGAAGGGATTA,29,16,43.323250719989176,3.9198129055264346,50.0,3,0.1875,Ba_6_V4,F,29_R,ATTCTCCACTTCCTGTTTCT,20,47.95761892956102,0.7145553040454118,40.0,3,0.15,R,S144,BA-BaBTSeqBa007P2--xx-xxx-xxxx-021-SF,Ba,,0
50652,29_F,GACACCGAAGGGATTA,29,16,43.323250719989176,3.9198129055264346,50.0,3,0.1875,Ba_6_V4,F,29_R,ATTCTCCACTTCCTGTTTCT,20,47.95761892956102,0.7145553040454118,40.0,3,0.15,R,S6,A0706,Ba,,0
50741,29_F,GACACCGAAGGGATTA,29,16,43.323250719989176,3.891872940753437,50.0,3,0.1875,Ba_V45,F,29_R,ATTCTCCACTTCCTGTTTCT,20,47.95761892956102,0.7424952688184092,40.0,3,0.15,R,S4,A0605,Ba,,102