,Primer_Name_L,Seq_L,Amplicon,Primer_Length_L,Tm_L,Delta Tm_L,GC_Content_L,Length_Longest_Homopolymer_L,Percent_Homopolymer_L,exp,flank_L,Primer_Name_R,Seq_R,Primer_Length_R,Tm_R,Delta Tm_R,GC_Content_R,Length_Longest_Homopolymer_R,Percent_Homopolymer_R,flank_R,sample_id,sample_name,species,strain,n_reads
22598,18_F,ATAGCGATGGTCAATTCAATGA,18,22,50.0822288486005,2.8391652230848834,36.36363636363637,2,0.0,Ba_6_V4,F,18_R,TGTGCCATCAAATAACTCTT,20,46.949777446224225,0.29328617929137835,35.0,3,0.15,R,S2,A0330,Ba,,98
22599,18_F,ATAGCGATGGTCAATTCAATGA,18,22,50.0822288486005,2.8391652230848834,36.36363636363637,2,0.0,Ba_6_V4,F,18_R,TGTGCCATCAAATAACTCTT,20,46.949777446224225,0.29328617929137835,35.0,3,0.15,R,S6,A0706,Ba,,163
22600,18_F,ATAGCGATGGTCAATTCAATGA,18,22,50.0822288486005,2.8391652230848834,36.36363636363637,2,0.0,Ba_6_V4,F,18_R,TGTGCCATCAAATAACTCTT,20,46.949777446224225,0.29328617929137835,35.0,3,0.15,R,S4,A0605,Ba,,9009
22601,18_F,ATAGCGATGGTCAATTCAATGA,18,22,50.0822288486005,2.8391652230848834,36.36363636363637,2,0.0,Ba_6_V4,F,18_R,TGTGCCATCAAATAACTCTT,20,46.949777446224225,0.29328617929137835,35.0,3,0.15,R,S5,A0615,Ba,,258
72370,19_F,TTAATGATAAAGCGCAAGG,19,19,45.59018254292738,1.6249411178152329,36.84210526315789,3,0.15789473684210525,Ba_V45,F,19_R,CAAAGTTCATAACACGGCTA,20,47.9918750622229,0.7767514014802899,40.0,3,0.15,R,S144,BA-BaBTSeqBa007P2--xx-xxx-xxxx-021-SF,Ba,,245
71152,19_F,TTAATGATAAAGCGCAAGG,19,19,45.59018254292738,0.7119991966585104,36.84210526315789,3,0.15789473684210525,Ba_5_V3,F,19_R,CAAAGTTCATAACACGGCTA,20,47.9918750622229,1.6896933226370123,40.0,3,0.15,R,S144,BA-BaBTSeqBa007P2--xx-xxx-xxxx-021-SF,Ba,,245
71082,19_F,TTAATGATAAAGCGCAAGG,19,19,45.59018254292738,0.7119991966585104,36.84210526315789,3,0.15789473684210525,Ba_5_V3,F,19_R,CAAAGTTCATAACACGGCTA,20,47.9918750622229,1.6896933226370123,40.0,3,0.15,R,S5,A0615,Ba,,7
71081,19_F,TTAATGATAAAGCGCAAGG,19,19,45.59018254292738,0.7119991966585104,36.84210526315789,3,0.15789473684210525,Ba_5_V3,F,19_R,CAAAGTTCATAACACGGCTA,20,47.9918750622229,1.6896933226370123,40.0,3,0.15,R,S2,A0330,Ba,,0
71080,19_F,TTAATGATAAAGCGCAAGG,19,19,45.59018254292738,0.7119991966585104,36.84210526315789,3,0.15789473684210525,Ba_5_V3,F,19_R,CAAAGTTCATAACACGGCTA,20,47.9918750622229,1.6896933226370123,40.0,3,0.15,R,S6,A0706,Ba,,25
71079,19_F,TTAATGATAAAGCGCAAGG,19,19,45.59018254292738,0.7119991966585104,36.84210526315789,3,0.15789473684210525,Ba_5_V3,F,19_R,CAAAGTTCATAACACGGCTA,20,47.9918750622229,1.6896933226370123,40.0,3,0.15,R,S4,A0605,Ba,,5208
71488,19_F,AAGTTAAGTATCAACCAGCAGA,19,22,49.21627388626297,3.1482834228763608,36.36363636363637,2,0.0,Ba_HighSH,F,19_R,CTTCATCCGCTCCAGCAACAT,21,55.18567036425498,2.8211130551156467,52.38095238095239,2,0.0,R,S5,A0615,Ba,,7
71487,19_F,AAGTTAAGTATCAACCAGCAGA,19,22,49.21627388626297,3.1482834228763608,36.36363636363637,2,0.0,Ba_HighSH,F,19_R,CTTCATCCGCTCCAGCAACAT,21,55.18567036425498,2.8211130551156467,52.38095238095239,2,0.0,R,S2,A0330,Ba,,0
71486,19_F,AAGTTAAGTATCAACCAGCAGA,19,22,49.21627388626297,3.1482834228763608,36.36363636363637,2,0.0,Ba_HighSH,F,19_R,CTTCATCCGCTCCAGCAACAT,21,55.18567036425498,2.8211130551156467,52.38095238095239,2,0.0,R,S6,A0706,Ba,,25
71485,19_F,AAGTTAAGTATCAACCAGCAGA,19,22,49.21627388626297,3.1482834228763608,36.36363636363637,2,0.0,Ba_HighSH,F,19_R,CTTCATCCGCTCCAGCAACAT,21,55.18567036425498,2.8211130551156467,52.38095238095239,2,0.0,R,S4,A0605,Ba,,5208
71558,19_F,AAGTTAAGTATCAACCAGCAGA,19,22,49.21627388626297,3.1482834228763608,36.36363636363637,2,0.0,Ba_HighSH,F,19_R,CTTCATCCGCTCCAGCAACAT,21,55.18567036425498,2.8211130551156467,52.38095238095239,2,0.0,R,S144,BA-BaBTSeqBa007P2--xx-xxx-xxxx-021-SF,Ba,,245
71285,19_F,TTAATGATAAAGCGCAAGG,19,19,45.59018254292738,1.6528810825882303,36.84210526315789,3,0.15789473684210525,Ba_6_V4,F,19_R,CAAAGTTCATAACACGGCTA,20,47.9918750622229,0.7488114367072924,40.0,3,0.15,R,S5,A0615,Ba,,7
71283,19_F,TTAATGATAAAGCGCAAGG,19,19,45.59018254292738,1.6528810825882303,36.84210526315789,3,0.15789473684210525,Ba_6_V4,F,19_R,CAAAGTTCATAACACGGCTA,20,47.9918750622229,0.7488114367072924,40.0,3,0.15,R,S6,A0706,Ba,,25
71282,19_F,TTAATGATAAAGCGCAAGG,19,19,45.59018254292738,1.6528810825882303,36.84210526315789,3,0.15789473684210525,Ba_6_V4,F,19_R,CAAAGTTCATAACACGGCTA,20,47.9918750622229,0.7488114367072924,40.0,3,0.15,R,S4,A0605,Ba,,5208
71284,19_F,TTAATGATAAAGCGCAAGG,19,19,45.59018254292738,1.6528810825882303,36.84210526315789,3,0.15789473684210525,Ba_6_V4,F,19_R,CAAAGTTCATAACACGGCTA,20,47.9918750622229,0.7488114367072924,40.0,3,0.15,R,S2,A0330,Ba,,0
71355,19_F,TTAATGATAAAGCGCAAGG,19,19,45.59018254292738,1.6528810825882303,36.84210526315789,3,0.15789473684210525,Ba_6_V4,F,19_R,CAAAGTTCATAACACGGCTA,20,47.9918750622229,0.7488114367072924,40.0,3,0.15,R,S144,BA-BaBTSeqBa007P2--xx-xxx-xxxx-021-SF,Ba,,245
70543,19_F,TTAATGATAAAGCGCAAGG,19,19,45.59018254292738,0.7538744171703797,36.84210526315789,3,0.15789473684210525,Ba_3,F,19_R,CAAAGTTCATAACACGGCTA,20,47.9918750622229,3.1555669364659025,40.0,3,0.15,R,S144,BA-BaBTSeqBa007P2--xx-xxx-xxxx-021-SF,Ba,,245
70340,19_F,TTAATGATAAAGCGCAAGG,19,19,45.59018254292738,0.7538744171703797,36.84210526315789,3,0.15789473684210525,Ba_2,F,19_R,CAAAGTTCATAACACGGCTA,20,47.9918750622229,3.1555669364659025,40.0,3,0.15,R,S144,BA-BaBTSeqBa007P2--xx-xxx-xxxx-021-SF,Ba,,245
70473,19_F,TTAATGATAAAGCGCAAGG,19,19,45.59018254292738,0.7538744171703797,36.84210526315789,3,0.15789473684210525,Ba_3,F,19_R,CAAAGTTCATAACACGGCTA,20,47.9918750622229,3.1555669364659025,40.0,3,0.15,R,S5,A0615,Ba,,7
70472,19_F,TTAATGATAAAGCGCAAGG,19,19,45.59018254292738,0.7538744171703797,36.84210526315789,3,0.15789473684210525,Ba_3,F,19_R,CAAAGTTCATAACACGGCTA,20,47.9918750622229,3.1555669364659025,40.0,3,0.15,R,S2,A0330,Ba,,0
70471,19_F,TTAATGATAAAGCGCAAGG,19,19,45.59018254292738,0.7538744171703797,36.84210526315789,3,0.15789473684210525,Ba_3,F,19_R,CAAAGTTCATAACACGGCTA,20,47.9918750622229,3.1555669364659025,40.0,3,0.15,R,S6,A0706,Ba,,25
70470,19_F,TTAATGATAAAGCGCAAGG,19,19,45.59018254292738,0.7538744171703797,36.84210526315789,3,0.15789473684210525,Ba_3,F,19_R,CAAAGTTCATAACACGGCTA,20,47.9918750622229,3.1555669364659025,40.0,3,0.15,R,S4,A0605,Ba,,5208
70877,19_F,TTAATGATAAAGCGCAAGG,19,19,45.59018254292738,0.8823349041858322,36.84210526315789,3,0.15789473684210525,Ba_5_V35,F,19_R,CAAAGTTCATAACACGGCTA,20,47.9918750622229,1.5193576151096906,40.0,3,0.15,R,S6,A0706,Ba,,25
70876,19_F,TTAATGATAAAGCGCAAGG,19,19,45.59018254292738,0.8823349041858322,36.84210526315789,3,0.15789473684210525,Ba_5_V35,F,19_R,CAAAGTTCATAACACGGCTA,20,47.9918750622229,1.5193576151096906,40.0,3,0.15,R,S4,A0605,Ba,,5208
70878,19_F,TTAATGATAAAGCGCAAGG,19,19,45.59018254292738,0.8823349041858322,36.84210526315789,3,0.15789473684210525,Ba_5_V35,F,19_R,CAAAGTTCATAACACGGCTA,20,47.9918750622229,1.5193576151096906,40.0,3,0.15,R,S2,A0330,Ba,,0
70879,19_F,TTAATGATAAAGCGCAAGG,19,19,45.59018254292738,0.8823349041858322,36.84210526315789,3,0.15789473684210525,Ba_5_V35,F,19_R,CAAAGTTCATAACACGGCTA,20,47.9918750622229,1.5193576151096906,40.0,3,0.15,R,S5,A0615,Ba,,7
70949,19_F,TTAATGATAAAGCGCAAGG,19,19,45.59018254292738,0.8823349041858322,36.84210526315789,3,0.15789473684210525,Ba_5_V35,F,19_R,CAAAGTTCATAACACGGCTA,20,47.9918750622229,1.5193576151096906,40.0,3,0.15,R,S144,BA-BaBTSeqBa007P2--xx-xxx-xxxx-021-SF,Ba,,245
70676,19_F,TTAATGATAAAGCGCAAGG,19,19,45.59018254292738,0.7119991966585104,36.84210526315789,3,0.15789473684210525,Ba_4,F,19_R,CAAAGTTCATAACACGGCTA,20,47.9918750622229,1.6896933226370123,40.0,3,0.15,R,S5,A0615,Ba,,7
70675,19_F,TTAATGATAAAGCGCAAGG,19,19,45.59018254292738,0.7119991966585104,36.84210526315789,3,0.15789473684210525,Ba_4,F,19_R,CAAAGTTCATAACACGGCTA,20,47.9918750622229,1.6896933226370123,40.0,3,0.15,R,S2,A0330,Ba,,0
70674,19_F,TTAATGATAAAGCGCAAGG,19,19,45.59018254292738,0.7119991966585104,36.84210526315789,3,0.15789473684210525,Ba_4,F,19_R,CAAAGTTCATAACACGGCTA,20,47.9918750622229,1.6896933226370123,40.0,3,0.15,R,S6,A0706,Ba,,25
70673,19_F,TTAATGATAAAGCGCAAGG,19,19,45.59018254292738,0.7119991966585104,36.84210526315789,3,0.15789473684210525,Ba_4,F,19_R,CAAAGTTCATAACACGGCTA,20,47.9918750622229,1.6896933226370123,40.0,3,0.15,R,S4,A0605,Ba,,5208
70746,19_F,TTAATGATAAAGCGCAAGG,19,19,45.59018254292738,0.7119991966585104,36.84210526315789,3,0.15789473684210525,Ba_4,F,19_R,CAAAGTTCATAACACGGCTA,20,47.9918750622229,1.6896933226370123,40.0,3,0.15,R,S144,BA-BaBTSeqBa007P2--xx-xxx-xxxx-021-SF,Ba,,245
72503,19_F,CTGCTAGGATGTTGGAAGATA,19,21,48.68207408261185,0.17421751761217052,42.857142857142854,2,0.0,Ft_1,F,19_R,TTCACCAATACACACTACTGGCGT,24,56.334687295200816,7.47839569497679,45.83333333333333,2,0.0,R,S5,A0615,Ba,,7
72502,19_F,CTGCTAGGATGTTGGAAGATA,19,21,48.68207408261185,0.17421751761217052,42.857142857142854,2,0.0,Ft_1,F,19_R,TTCACCAATACACACTACTGGCGT,24,56.334687295200816,7.47839569497679,45.83333333333333,2,0.0,R,S2,A0330,Ba,,0
72501,19_F,CTGCTAGGATGTTGGAAGATA,19,21,48.68207408261185,0.17421751761217052,42.857142857142854,2,0.0,Ft_1,F,19_R,TTCACCAATACACACTACTGGCGT,24,56.334687295200816,7.47839569497679,45.83333333333333,2,0.0,R,S6,A0706,Ba,,25
72500,19_F,CTGCTAGGATGTTGGAAGATA,19,21,48.68207408261185,0.17421751761217052,42.857142857142854,2,0.0,Ft_1,F,19_R,TTCACCAATACACACTACTGGCGT,24,56.334687295200816,7.47839569497679,45.83333333333333,2,0.0,R,S4,A0605,Ba,,5208
72300,19_F,TTAATGATAAAGCGCAAGG,19,19,45.59018254292738,1.6249411178152329,36.84210526315789,3,0.15789473684210525,Ba_V45,F,19_R,CAAAGTTCATAACACGGCTA,20,47.9918750622229,0.7767514014802899,40.0,3,0.15,R,S5,A0615,Ba,,7
72299,19_F,TTAATGATAAAGCGCAAGG,19,19,45.59018254292738,1.6249411178152329,36.84210526315789,3,0.15789473684210525,Ba_V45,F,19_R,CAAAGTTCATAACACGGCTA,20,47.9918750622229,0.7767514014802899,40.0,3,0.15,R,S2,A0330,Ba,,0
72298,19_F,TTAATGATAAAGCGCAAGG,19,19,45.59018254292738,1.6249411178152329,36.84210526315789,3,0.15789473684210525,Ba_V45,F,19_R,CAAAGTTCATAACACGGCTA,20,47.9918750622229,0.7767514014802899,40.0,3,0.15,R,S6,A0706,Ba,,25
72297,19_F,TTAATGATAAAGCGCAAGG,19,19,45.59018254292738,1.6249411178152329,36.84210526315789,3,0.15789473684210525,Ba_V45,F,19_R,CAAAGTTCATAACACGGCTA,20,47.9918750622229,0.7767514014802899,40.0,3,0.15,R,S4,A0605,Ba,,5208
72706,19_F,GGTGCTTATACTGGTGAGATAT,19,22,48.98379840475667,1.0733894390572232,40.90909090909091,2,0.0,Ft_2_V2,F,19_R,TGATTCACCAATACACACTACT,22,48.950904359204635,1.1062834846092642,36.36363636363637,2,0.0,R,S5,A0615,Ba,,7
72705,19_F,GGTGCTTATACTGGTGAGATAT,19,22,48.98379840475667,1.0733894390572232,40.90909090909091,2,0.0,Ft_2_V2,F,19_R,TGATTCACCAATACACACTACT,22,48.950904359204635,1.1062834846092642,36.36363636363637,2,0.0,R,S2,A0330,Ba,,0
72704,19_F,GGTGCTTATACTGGTGAGATAT,19,22,48.98379840475667,1.0733894390572232,40.90909090909091,2,0.0,Ft_2_V2,F,19_R,TGATTCACCAATACACACTACT,22,48.950904359204635,1.1062834846092642,36.36363636363637,2,0.0,R,S6,A0706,Ba,,25
72703,19_F,GGTGCTTATACTGGTGAGATAT,19,22,48.98379840475667,1.0733894390572232,40.90909090909091,2,0.0,Ft_2_V2,F,19_R,TGATTCACCAATACACACTACT,22,48.950904359204635,1.1062834846092642,36.36363636363637,2,0.0,R,S4,A0605,Ba,,5208
72776,19_F,GGTGCTTATACTGGTGAGATAT,19,22,48.98379840475667,1.0733894390572232,40.90909090909091,2,0.0,Ft_2_V2,F,19_R,TGATTCACCAATACACACTACT,22,48.950904359204635,1.1062834846092642,36.36363636363637,2,0.0,R,S144,BA-BaBTSeqBa007P2--xx-xxx-xxxx-021-SF,Ba,,245
72573,19_F,CTGCTAGGATGTTGGAAGATA,19,21,48.68207408261185,0.17421751761217052,42.857142857142854,2,0.0,Ft_1,F,19_R,TTCACCAATACACACTACTGGCGT,24,56.334687295200816,7.47839569497679,45.83333333333333,2,0.0,R,S144,BA-BaBTSeqBa007P2--xx-xxx-xxxx-021-SF,Ba,,245
71761,19_F,ACCAGCAGAAGAAACAAG,19,18,46.709956942528656,4.81248916561519,44.444444444444436,3,0.16666666666666666,Ba_HighSpec,F,19_R,TCTTGTTTCTCTTCATCCGCTC,22,52.6030973221383,1.0806512139944429,45.45454545454545,3,0.13636363636363635,R,S144,BA-BaBTSeqBa007P2--xx-xxx-xxxx-021-SF,Ba,,245
71894,19_F,AAGTTAAGTATCAACCAGCAGA,19,22,49.21627388626297,2.3561399322747794,36.36363636363637,2,0.0,Ba_LowSH,F,19_R,TCTTGTTTCTCTTCATCCGCTC,22,52.6030973221383,1.0306835036005495,45.45454545454545,3,0.13636363636363635,R,S5,A0615,Ba,,7
71893,19_F,AAGTTAAGTATCAACCAGCAGA,19,22,49.21627388626297,2.3561399322747794,36.36363636363637,2,0.0,Ba_LowSH,F,19_R,TCTTGTTTCTCTTCATCCGCTC,22,52.6030973221383,1.0306835036005495,45.45454545454545,3,0.13636363636363635,R,S2,A0330,Ba,,0
71892,19_F,AAGTTAAGTATCAACCAGCAGA,19,22,49.21627388626297,2.3561399322747794,36.36363636363637,2,0.0,Ba_LowSH,F,19_R,TCTTGTTTCTCTTCATCCGCTC,22,52.6030973221383,1.0306835036005495,45.45454545454545,3,0.13636363636363635,R,S6,A0706,Ba,,25
71891,19_F,AAGTTAAGTATCAACCAGCAGA,19,22,49.21627388626297,2.3561399322747794,36.36363636363637,2,0.0,Ba_LowSH,F,19_R,TCTTGTTTCTCTTCATCCGCTC,22,52.6030973221383,1.0306835036005495,45.45454545454545,3,0.13636363636363635,R,S4,A0605,Ba,,5208
71688,19_F,ACCAGCAGAAGAAACAAG,19,18,46.709956942528656,4.81248916561519,44.444444444444436,3,0.16666666666666666,Ba_HighSpec,F,19_R,TCTTGTTTCTCTTCATCCGCTC,22,52.6030973221383,1.0806512139944429,45.45454545454545,3,0.13636363636363635,R,S4,A0605,Ba,,5208
71689,19_F,ACCAGCAGAAGAAACAAG,19,18,46.709956942528656,4.81248916561519,44.444444444444436,3,0.16666666666666666,Ba_HighSpec,F,19_R,TCTTGTTTCTCTTCATCCGCTC,22,52.6030973221383,1.0806512139944429,45.45454545454545,3,0.13636363636363635,R,S6,A0706,Ba,,25
71691,19_F,ACCAGCAGAAGAAACAAG,19,18,46.709956942528656,4.81248916561519,44.444444444444436,3,0.16666666666666666,Ba_HighSpec,F,19_R,TCTTGTTTCTCTTCATCCGCTC,22,52.6030973221383,1.0806512139944429,45.45454545454545,3,0.13636363636363635,R,S5,A0615,Ba,,7
71690,19_F,ACCAGCAGAAGAAACAAG,19,18,46.709956942528656,4.81248916561519,44.444444444444436,3,0.16666666666666666,Ba_HighSpec,F,19_R,TCTTGTTTCTCTTCATCCGCTC,22,52.6030973221383,1.0806512139944429,45.45454545454545,3,0.13636363636363635,R,S2,A0330,Ba,,0
72097,19_F,ACCAGCAGAAGAAACAAG,19,18,46.709956942528656,4.005127664274127,44.444444444444436,3,0.16666666666666666,Ba_OkX,F,19_R,AGTTCATAACACGGCTACCGCC,22,57.08100362787161,6.36591902106882,54.54545454545454,2,0.0,R,S5,A0615,Ba,,7
72096,19_F,ACCAGCAGAAGAAACAAG,19,18,46.709956942528656,4.005127664274127,44.444444444444436,3,0.16666666666666666,Ba_OkX,F,19_R,AGTTCATAACACGGCTACCGCC,22,57.08100362787161,6.36591902106882,54.54545454545454,2,0.0,R,S2,A0330,Ba,,0
72094,19_F,ACCAGCAGAAGAAACAAG,19,18,46.709956942528656,4.005127664274127,44.444444444444436,3,0.16666666666666666,Ba_OkX,F,19_R,AGTTCATAACACGGCTACCGCC,22,57.08100362787161,6.36591902106882,54.54545454545454,2,0.0,R,S4,A0605,Ba,,5208
72095,19_F,ACCAGCAGAAGAAACAAG,19,18,46.709956942528656,4.005127664274127,44.444444444444436,3,0.16666666666666666,Ba_OkX,F,19_R,AGTTCATAACACGGCTACCGCC,22,57.08100362787161,6.36591902106882,54.54545454545454,2,0.0,R,S6,A0706,Ba,,25
72167,19_F,ACCAGCAGAAGAAACAAG,19,18,46.709956942528656,4.005127664274127,44.444444444444436,3,0.16666666666666666,Ba_OkX,F,19_R,AGTTCATAACACGGCTACCGCC,22,57.08100362787161,6.36591902106882,54.54545454545454,2,0.0,R,S144,BA-BaBTSeqBa007P2--xx-xxx-xxxx-021-SF,Ba,,245
71964,19_F,AAGTTAAGTATCAACCAGCAGA,19,22,49.21627388626297,2.3561399322747794,36.36363636363637,2,0.0,Ba_LowSH,F,19_R,TCTTGTTTCTCTTCATCCGCTC,22,52.6030973221383,1.0306835036005495,45.45454545454545,3,0.13636363636363635,R,S144,BA-BaBTSeqBa007P2--xx-xxx-xxxx-021-SF,Ba,,245
73312,19_F,GATAGGTTCTAATCCATTCACC,19,22,47.9681031353337,3.4567866173089783,40.90909090909091,2,0.0,Yp_1,F,19_R,CTGGCTGACTGTACTACTGAAGT,23,53.58825984585576,2.1633700932130746,47.82608695652174,2,0.0,R,S4,A0605,Ba,,5208
73313,19_F,GATAGGTTCTAATCCATTCACC,19,22,47.9681031353337,3.4567866173089783,40.90909090909091,2,0.0,Yp_1,F,19_R,CTGGCTGACTGTACTACTGAAGT,23,53.58825984585576,2.1633700932130746,47.82608695652174,2,0.0,R,S6,A0706,Ba,,25
73314,19_F,GATAGGTTCTAATCCATTCACC,19,22,47.9681031353337,3.4567866173089783,40.90909090909091,2,0.0,Yp_1,F,19_R,CTGGCTGACTGTACTACTGAAGT,23,53.58825984585576,2.1633700932130746,47.82608695652174,2,0.0,R,S2,A0330,Ba,,0
73315,19_F,GATAGGTTCTAATCCATTCACC,19,22,47.9681031353337,3.4567866173089783,40.90909090909091,2,0.0,Yp_1,F,19_R,CTGGCTGACTGTACTACTGAAGT,23,53.58825984585576,2.1633700932130746,47.82608695652174,2,0.0,R,S5,A0615,Ba,,7
73385,19_F,GATAGGTTCTAATCCATTCACC,19,22,47.9681031353337,3.4567866173089783,40.90909090909091,2,0.0,Yp_1,F,19_R,CTGGCTGACTGTACTACTGAAGT,23,53.58825984585576,2.1633700932130746,47.82608695652174,2,0.0,R,S144,BA-BaBTSeqBa007P2--xx-xxx-xxxx-021-SF,Ba,,245
73182,19_F,GATAGGTTCTAATCCATTCACC,19,22,47.9681031353337,3.1981085193504057,40.90909090909091,2,0.0,Yp_1_V2,F,19_R,CTGGCTGACTGTACTACTGAAGT,23,53.58825984585576,2.422048191171648,47.82608695652174,2,0.0,R,S144,BA-BaBTSeqBa007P2--xx-xxx-xxxx-021-SF,Ba,,245
73588,19_F,GCGAACTTCCTGTGCTGCA,19,19,55.5681329228405,3.570902702356115,57.894736842105274,2,0.0,Yp_2,F,19_R,CCGATGAAGATGCGAGCAAGTTGA,24,57.867889804131444,5.870659583647047,50.0,2,0.0,R,S144,BA-BaBTSeqBa007P2--xx-xxx-xxxx-021-SF,Ba,,245
73518,19_F,GCGAACTTCCTGTGCTGCA,19,19,55.5681329228405,3.570902702356115,57.894736842105274,2,0.0,Yp_2,F,19_R,CCGATGAAGATGCGAGCAAGTTGA,24,57.867889804131444,5.870659583647047,50.0,2,0.0,R,S5,A0615,Ba,,7
73516,19_F,GCGAACTTCCTGTGCTGCA,19,19,55.5681329228405,3.570902702356115,57.894736842105274,2,0.0,Yp_2,F,19_R,CCGATGAAGATGCGAGCAAGTTGA,24,57.867889804131444,5.870659583647047,50.0,2,0.0,R,S6,A0706,Ba,,25
73515,19_F,GCGAACTTCCTGTGCTGCA,19,19,55.5681329228405,3.570902702356115,57.894736842105274,2,0.0,Yp_2,F,19_R,CCGATGAAGATGCGAGCAAGTTGA,24,57.867889804131444,5.870659583647047,50.0,2,0.0,R,S4,A0605,Ba,,5208
73517,19_F,GCGAACTTCCTGTGCTGCA,19,19,55.5681329228405,3.570902702356115,57.894736842105274,2,0.0,Yp_2,F,19_R,CCGATGAAGATGCGAGCAAGTTGA,24,57.867889804131444,5.870659583647047,50.0,2,0.0,R,S2,A0330,Ba,,0
70137,19_F,TTAATGATAAAGCGCAAGG,19,19,45.59018254292738,0.7538744171703797,36.84210526315789,3,0.15789473684210525,Ba_1,F,19_R,CAAAGTTCATAACACGGCTA,20,47.9918750622229,3.1555669364659025,40.0,3,0.15,R,S144,BA-BaBTSeqBa007P2--xx-xxx-xxxx-021-SF,Ba,,245
70067,19_F,TTAATGATAAAGCGCAAGG,19,19,45.59018254292738,0.7538744171703797,36.84210526315789,3,0.15789473684210525,Ba_1,F,19_R,CAAAGTTCATAACACGGCTA,20,47.9918750622229,3.1555669364659025,40.0,3,0.15,R,S5,A0615,Ba,,7
70066,19_F,TTAATGATAAAGCGCAAGG,19,19,45.59018254292738,0.7538744171703797,36.84210526315789,3,0.15789473684210525,Ba_1,F,19_R,CAAAGTTCATAACACGGCTA,20,47.9918750622229,3.1555669364659025,40.0,3,0.15,R,S2,A0330,Ba,,0
70065,19_F,TTAATGATAAAGCGCAAGG,19,19,45.59018254292738,0.7538744171703797,36.84210526315789,3,0.15789473684210525,Ba_1,F,19_R,CAAAGTTCATAACACGGCTA,20,47.9918750622229,3.1555669364659025,40.0,3,0.15,R,S6,A0706,Ba,,25
70064,19_F,TTAATGATAAAGCGCAAGG,19,19,45.59018254292738,0.7538744171703797,36.84210526315789,3,0.15789473684210525,Ba_1,F,19_R,CAAAGTTCATAACACGGCTA,20,47.9918750622229,3.1555669364659025,40.0,3,0.15,R,S4,A0605,Ba,,5208
70268,19_F,TTAATGATAAAGCGCAAGG,19,19,45.59018254292738,0.7538744171703797,36.84210526315789,3,0.15789473684210525,Ba_2,F,19_R,CAAAGTTCATAACACGGCTA,20,47.9918750622229,3.1555669364659025,40.0,3,0.15,R,S6,A0706,Ba,,25
70269,19_F,TTAATGATAAAGCGCAAGG,19,19,45.59018254292738,0.7538744171703797,36.84210526315789,3,0.15789473684210525,Ba_2,F,19_R,CAAAGTTCATAACACGGCTA,20,47.9918750622229,3.1555669364659025,40.0,3,0.15,R,S2,A0330,Ba,,0
70270,19_F,TTAATGATAAAGCGCAAGG,19,19,45.59018254292738,0.7538744171703797,36.84210526315789,3,0.15789473684210525,Ba_2,F,19_R,CAAAGTTCATAACACGGCTA,20,47.9918750622229,3.1555669364659025,40.0,3,0.15,R,S5,A0615,Ba,,7
70267,19_F,TTAATGATAAAGCGCAAGG,19,19,45.59018254292738,0.7538744171703797,36.84210526315789,3,0.15789473684210525,Ba_2,F,19_R,CAAAGTTCATAACACGGCTA,20,47.9918750622229,3.1555669364659025,40.0,3,0.15,R,S4,A0605,Ba,,5208
73112,19_F,GATAGGTTCTAATCCATTCACC,19,22,47.9681031353337,3.1981085193504057,40.90909090909091,2,0.0,Yp_1_V2,F,19_R,CTGGCTGACTGTACTACTGAAGT,23,53.58825984585576,2.422048191171648,47.82608695652174,2,0.0,R,S5,A0615,Ba,,7