,Primer_Name_L,Seq_L,Amplicon,Primer_Length_L,Tm_L,Delta Tm_L,GC_Content_L,Length_Longest_Homopolymer_L,Percent_Homopolymer_L,exp,flank_L,Primer_Name_R,Seq_R,Primer_Length_R,Tm_R,Delta Tm_R,GC_Content_R,Length_Longest_Homopolymer_R,Percent_Homopolymer_R,flank_R,sample_id,sample_name,species,strain,n_reads
11849,9_F,ATCTAAATACACGTGCGG,9,18,46.64826005855907,0.34607831897317,44.444444444444436,3,0.16666666666666666,Ba_5_V3,F,9_R,GGTTTCTACTGTGTATGTTG,20,45.92034864664402,0.38183309294187495,40.0,3,0.15,R,S144,BA-BaBTSeqBa007P2--xx-xxx-xxxx-021-SF,Ba,,587
11975,9_F,ATCTAAATACACGTGCGG,9,18,46.64826005855907,0.5948035669565499,44.444444444444436,3,0.16666666666666666,Ba_6_V4,F,9_R,GGTTTCTACTGTGTATGTTG,20,45.92034864664402,1.3227149788715948,40.0,3,0.15,R,S2,A0330,Ba,,8
11973,9_F,ATCTAAATACACGTGCGG,9,18,46.64826005855907,0.5948035669565499,44.444444444444436,3,0.16666666666666666,Ba_6_V4,F,9_R,GGTTTCTACTGTGTATGTTG,20,45.92034864664402,1.3227149788715948,40.0,3,0.15,R,S5,A0615,Ba,,13
11972,9_F,ATCTAAATACACGTGCGG,9,18,46.64826005855907,0.5948035669565499,44.444444444444436,3,0.16666666666666666,Ba_6_V4,F,9_R,GGTTTCTACTGTGTATGTTG,20,45.92034864664402,1.3227149788715948,40.0,3,0.15,R,S4,A0605,Ba,,3493
11974,9_F,ATCTAAATACACGTGCGG,9,18,46.64826005855907,0.5948035669565499,44.444444444444436,3,0.16666666666666666,Ba_6_V4,F,9_R,GGTTTCTACTGTGTATGTTG,20,45.92034864664402,1.3227149788715948,40.0,3,0.15,R,S6,A0706,Ba,,6
12952,9_F,ATCTAAATACACGTGCGG,9,18,46.64826005855907,0.5668636021835525,44.444444444444436,3,0.16666666666666666,Ba_V45,F,9_R,GGTTTCTACTGTGTATGTTG,20,45.92034864664402,1.2947750140985974,40.0,3,0.15,R,S4,A0605,Ba,,3493
12953,9_F,ATCTAAATACACGTGCGG,9,18,46.64826005855907,0.5668636021835525,44.444444444444436,3,0.16666666666666666,Ba_V45,F,9_R,GGTTTCTACTGTGTATGTTG,20,45.92034864664402,1.2947750140985974,40.0,3,0.15,R,S5,A0615,Ba,,13
12954,9_F,ATCTAAATACACGTGCGG,9,18,46.64826005855907,0.5668636021835525,44.444444444444436,3,0.16666666666666666,Ba_V45,F,9_R,GGTTTCTACTGTGTATGTTG,20,45.92034864664402,1.2947750140985974,40.0,3,0.15,R,S6,A0706,Ba,,6
12955,9_F,ATCTAAATACACGTGCGG,9,18,46.64826005855907,0.5668636021835525,44.444444444444436,3,0.16666666666666666,Ba_V45,F,9_R,GGTTTCTACTGTGTATGTTG,20,45.92034864664402,1.2947750140985974,40.0,3,0.15,R,S2,A0330,Ba,,8
12756,9_F,GGCAATCGGCCACTGT,9,16,51.3747260752894,0.6596414684866119,62.5,2,0.0,Ba_OkX,F,9_R,GTAGAGAAGTTCGTGGCGG,19,52.37486421745899,1.6597796106562015,57.894736842105274,2,0.0,R,S4,A0605,Ba,,3493
12757,9_F,GGCAATCGGCCACTGT,9,16,51.3747260752894,0.6596414684866119,62.5,2,0.0,Ba_OkX,F,9_R,GTAGAGAAGTTCGTGGCGG,19,52.37486421745899,1.6597796106562015,57.894736842105274,2,0.0,R,S5,A0615,Ba,,13
12758,9_F,GGCAATCGGCCACTGT,9,16,51.3747260752894,0.6596414684866119,62.5,2,0.0,Ba_OkX,F,9_R,GTAGAGAAGTTCGTGGCGG,19,52.37486421745899,1.6597796106562015,57.894736842105274,2,0.0,R,S6,A0706,Ba,,6
12759,9_F,GGCAATCGGCCACTGT,9,16,51.3747260752894,0.6596414684866119,62.5,2,0.0,Ba_OkX,F,9_R,GTAGAGAAGTTCGTGGCGG,19,52.37486421745899,1.6597796106562015,57.894736842105274,2,0.0,R,S2,A0330,Ba,,8
12829,9_F,GGCAATCGGCCACTGT,9,16,51.3747260752894,0.6596414684866119,62.5,2,0.0,Ba_OkX,F,9_R,GTAGAGAAGTTCGTGGCGG,19,52.37486421745899,1.6597796106562015,57.894736842105274,2,0.0,R,S144,BA-BaBTSeqBa007P2--xx-xxx-xxxx-021-SF,Ba,,587
13148,9_F,CTTCTTCATCGCCAGTGCTA,9,20,51.96689884213089,3.110607241906869,50.0,2,0.0,Ft_1,F,9_R,ACAACCTATGATTTACTTGC,20,45.414038648042315,3.442252952181697,35.0,3,0.15,R,S4,A0605,Ba,,3493
13149,9_F,CTTCTTCATCGCCAGTGCTA,9,20,51.96689884213089,3.110607241906869,50.0,2,0.0,Ft_1,F,9_R,ACAACCTATGATTTACTTGC,20,45.414038648042315,3.442252952181697,35.0,3,0.15,R,S5,A0615,Ba,,13
13150,9_F,CTTCTTCATCGCCAGTGCTA,9,20,51.96689884213089,3.110607241906869,50.0,2,0.0,Ft_1,F,9_R,ACAACCTATGATTTACTTGC,20,45.414038648042315,3.442252952181697,35.0,3,0.15,R,S6,A0706,Ba,,6
13151,9_F,CTTCTTCATCGCCAGTGCTA,9,20,51.96689884213089,3.110607241906869,50.0,2,0.0,Ft_1,F,9_R,ACAACCTATGATTTACTTGC,20,45.414038648042315,3.442252952181697,35.0,3,0.15,R,S2,A0330,Ba,,8
13221,9_F,CTTCTTCATCGCCAGTGCTA,9,20,51.96689884213089,3.110607241906869,50.0,2,0.0,Ft_1,F,9_R,ACAACCTATGATTTACTTGC,20,45.414038648042315,3.442252952181697,35.0,3,0.15,R,S144,BA-BaBTSeqBa007P2--xx-xxx-xxxx-021-SF,Ba,,587
13025,9_F,ATCTAAATACACGTGCGG,9,18,46.64826005855907,0.5668636021835525,44.444444444444436,3,0.16666666666666666,Ba_V45,F,9_R,GGTTTCTACTGTGTATGTTG,20,45.92034864664402,1.2947750140985974,40.0,3,0.15,R,S144,BA-BaBTSeqBa007P2--xx-xxx-xxxx-021-SF,Ba,,587
12364,9_F,GGCAATCGGCCACTGTT,9,17,52.20041080302713,0.6779646948832719,58.82352941176471,2,0.0,Ba_HighSpec,F,9_R,AGTTCGTGGCGGACGTGAA,19,56.418525317431886,4.8960792092880325,57.894736842105274,2,0.0,R,S4,A0605,Ba,,3493
12365,9_F,GGCAATCGGCCACTGTT,9,17,52.20041080302713,0.6779646948832719,58.82352941176471,2,0.0,Ba_HighSpec,F,9_R,AGTTCGTGGCGGACGTGAA,19,56.418525317431886,4.8960792092880325,57.894736842105274,2,0.0,R,S5,A0615,Ba,,13
12366,9_F,GGCAATCGGCCACTGTT,9,17,52.20041080302713,0.6779646948832719,58.82352941176471,2,0.0,Ba_HighSpec,F,9_R,AGTTCGTGGCGGACGTGAA,19,56.418525317431886,4.8960792092880325,57.894736842105274,2,0.0,R,S6,A0706,Ba,,6
12367,9_F,GGCAATCGGCCACTGTT,9,17,52.20041080302713,0.6779646948832719,58.82352941176471,2,0.0,Ba_HighSpec,F,9_R,AGTTCGTGGCGGACGTGAA,19,56.418525317431886,4.8960792092880325,57.894736842105274,2,0.0,R,S2,A0330,Ba,,8
12437,9_F,GGCAATCGGCCACTGTT,9,17,52.20041080302713,0.6779646948832719,58.82352941176471,2,0.0,Ba_HighSpec,F,9_R,AGTTCGTGGCGGACGTGAA,19,56.418525317431886,4.8960792092880325,57.894736842105274,2,0.0,R,S144,BA-BaBTSeqBa007P2--xx-xxx-xxxx-021-SF,Ba,,587
12241,9_F,GGCAATCGGCCACTGTT,9,17,52.20041080302713,0.16414650611220338,58.82352941176471,2,0.0,Ba_HighSH,F,9_R,AGTTCGTGGCGGACGTGAA,19,56.418525317431886,4.053968008292556,57.894736842105274,2,0.0,R,S144,BA-BaBTSeqBa007P2--xx-xxx-xxxx-021-SF,Ba,,587
12633,9_F,GGCAATCGGCCACTGTT,9,17,52.20041080302713,0.6279969844893785,58.82352941176471,2,0.0,Ba_LowSH,F,9_R,GTAGAGAAGTTCGTGGCGG,19,52.37486421745899,0.8024503989212448,57.894736842105274,2,0.0,R,S144,BA-BaBTSeqBa007P2--xx-xxx-xxxx-021-SF,Ba,,587
12560,9_F,GGCAATCGGCCACTGTT,9,17,52.20041080302713,0.6279969844893785,58.82352941176471,2,0.0,Ba_LowSH,F,9_R,GTAGAGAAGTTCGTGGCGG,19,52.37486421745899,0.8024503989212448,57.894736842105274,2,0.0,R,S4,A0605,Ba,,3493
12561,9_F,GGCAATCGGCCACTGTT,9,17,52.20041080302713,0.6279969844893785,58.82352941176471,2,0.0,Ba_LowSH,F,9_R,GTAGAGAAGTTCGTGGCGG,19,52.37486421745899,0.8024503989212448,57.894736842105274,2,0.0,R,S5,A0615,Ba,,13
12562,9_F,GGCAATCGGCCACTGTT,9,17,52.20041080302713,0.6279969844893785,58.82352941176471,2,0.0,Ba_LowSH,F,9_R,GTAGAGAAGTTCGTGGCGG,19,52.37486421745899,0.8024503989212448,57.894736842105274,2,0.0,R,S6,A0706,Ba,,6
12563,9_F,GGCAATCGGCCACTGTT,9,17,52.20041080302713,0.6279969844893785,58.82352941176471,2,0.0,Ba_LowSH,F,9_R,GTAGAGAAGTTCGTGGCGG,19,52.37486421745899,0.8024503989212448,57.894736842105274,2,0.0,R,S2,A0330,Ba,,8
13932,9_F,TTACCACAACCAGTACGG,9,18,48.12872572213712,3.2961640305055653,50.0,2,0.0,Yp_1,F,9_R,AGCACCAACCTCACAGGT,18,52.45932316800218,1.0344334153595014,55.555555555555564,2,0.0,R,S4,A0605,Ba,,3493
13933,9_F,TTACCACAACCAGTACGG,9,18,48.12872572213712,3.2961640305055653,50.0,2,0.0,Yp_1,F,9_R,AGCACCAACCTCACAGGT,18,52.45932316800218,1.0344334153595014,55.555555555555564,2,0.0,R,S5,A0615,Ba,,13
13934,9_F,TTACCACAACCAGTACGG,9,18,48.12872572213712,3.2961640305055653,50.0,2,0.0,Yp_1,F,9_R,AGCACCAACCTCACAGGT,18,52.45932316800218,1.0344334153595014,55.555555555555564,2,0.0,R,S6,A0706,Ba,,6
13935,9_F,TTACCACAACCAGTACGG,9,18,48.12872572213712,3.2961640305055653,50.0,2,0.0,Yp_1,F,9_R,AGCACCAACCTCACAGGT,18,52.45932316800218,1.0344334153595014,55.555555555555564,2,0.0,R,S2,A0330,Ba,,8
14005,9_F,TTACCACAACCAGTACGG,9,18,48.12872572213712,3.2961640305055653,50.0,2,0.0,Yp_1,F,9_R,AGCACCAACCTCACAGGT,18,52.45932316800218,1.0344334153595014,55.555555555555564,2,0.0,R,S144,BA-BaBTSeqBa007P2--xx-xxx-xxxx-021-SF,Ba,,587
13809,9_F,TTACCACAACCAGTACGG,9,18,48.12872572213712,3.0374859325469927,50.0,2,0.0,Yp_1_V2,F,9_R,AGCACCAACCTCACAGGT,18,52.45932316800218,1.293111513318074,55.555555555555564,2,0.0,R,S144,BA-BaBTSeqBa007P2--xx-xxx-xxxx-021-SF,Ba,,587
14201,9_F,GATATGCTCTCCTGCGGC,9,18,52.1128200352345,0.1155898147501162,61.111111111111114,2,0.0,Yp_2,F,9_R,GAGCAAAAGCCTGAAGTGACG,21,54.38452311771749,2.3872928972331025,52.38095238095239,4,0.19047619047619047,R,S144,BA-BaBTSeqBa007P2--xx-xxx-xxxx-021-SF,Ba,,587
14128,9_F,GATATGCTCTCCTGCGGC,9,18,52.1128200352345,0.1155898147501162,61.111111111111114,2,0.0,Yp_2,F,9_R,GAGCAAAAGCCTGAAGTGACG,21,54.38452311771749,2.3872928972331025,52.38095238095239,4,0.19047619047619047,R,S4,A0605,Ba,,3493
14129,9_F,GATATGCTCTCCTGCGGC,9,18,52.1128200352345,0.1155898147501162,61.111111111111114,2,0.0,Yp_2,F,9_R,GAGCAAAAGCCTGAAGTGACG,21,54.38452311771749,2.3872928972331025,52.38095238095239,4,0.19047619047619047,R,S5,A0615,Ba,,13
14130,9_F,GATATGCTCTCCTGCGGC,9,18,52.1128200352345,0.1155898147501162,61.111111111111114,2,0.0,Yp_2,F,9_R,GAGCAAAAGCCTGAAGTGACG,21,54.38452311771749,2.3872928972331025,52.38095238095239,4,0.19047619047619047,R,S6,A0706,Ba,,6
14131,9_F,GATATGCTCTCCTGCGGC,9,18,52.1128200352345,0.1155898147501162,61.111111111111114,2,0.0,Yp_2,F,9_R,GAGCAAAAGCCTGAAGTGACG,21,54.38452311771749,2.3872928972331025,52.38095238095239,4,0.19047619047619047,R,S2,A0330,Ba,,8
13417,9_F,ATCGCCAGTGCTAAGATGTT,9,20,51.486312761093025,1.4291249172791254,45.0,2,0.0,Ft_2_V2,F,9_R,ACAACCTATGATTTACTTGCA,21,47.287336192857474,2.7698516509564115,33.33333333333333,3,0.14285714285714285,R,S144,BA-BaBTSeqBa007P2--xx-xxx-xxxx-021-SF,Ba,,587
13344,9_F,ATCGCCAGTGCTAAGATGTT,9,20,51.486312761093025,1.4291249172791254,45.0,2,0.0,Ft_2_V2,F,9_R,ACAACCTATGATTTACTTGCA,21,47.287336192857474,2.7698516509564115,33.33333333333333,3,0.14285714285714285,R,S4,A0605,Ba,,3493
13345,9_F,ATCGCCAGTGCTAAGATGTT,9,20,51.486312761093025,1.4291249172791254,45.0,2,0.0,Ft_2_V2,F,9_R,ACAACCTATGATTTACTTGCA,21,47.287336192857474,2.7698516509564115,33.33333333333333,3,0.14285714285714285,R,S5,A0615,Ba,,13
13346,9_F,ATCGCCAGTGCTAAGATGTT,9,20,51.486312761093025,1.4291249172791254,45.0,2,0.0,Ft_2_V2,F,9_R,ACAACCTATGATTTACTTGCA,21,47.287336192857474,2.7698516509564115,33.33333333333333,3,0.14285714285714285,R,S6,A0706,Ba,,6
13347,9_F,ATCGCCAGTGCTAAGATGTT,9,20,51.486312761093025,1.4291249172791254,45.0,2,0.0,Ft_2_V2,F,9_R,ACAACCTATGATTTACTTGCA,21,47.287336192857474,2.7698516509564115,33.33333333333333,3,0.14285714285714285,R,S2,A0330,Ba,,8
13736,9_F,TTACCACAACCAGTACGG,9,18,48.12872572213712,3.0374859325469927,50.0,2,0.0,Yp_1_V2,F,9_R,AGCACCAACCTCACAGGT,18,52.45932316800218,1.293111513318074,55.555555555555564,2,0.0,R,S4,A0605,Ba,,3493
13737,9_F,TTACCACAACCAGTACGG,9,18,48.12872572213712,3.0374859325469927,50.0,2,0.0,Yp_1_V2,F,9_R,AGCACCAACCTCACAGGT,18,52.45932316800218,1.293111513318074,55.555555555555564,2,0.0,R,S5,A0615,Ba,,13
13738,9_F,TTACCACAACCAGTACGG,9,18,48.12872572213712,3.0374859325469927,50.0,2,0.0,Yp_1_V2,F,9_R,AGCACCAACCTCACAGGT,18,52.45932316800218,1.293111513318074,55.555555555555564,2,0.0,R,S6,A0706,Ba,,6
13739,9_F,TTACCACAACCAGTACGG,9,18,48.12872572213712,3.0374859325469927,50.0,2,0.0,Yp_1_V2,F,9_R,AGCACCAACCTCACAGGT,18,52.45932316800218,1.293111513318074,55.555555555555564,2,0.0,R,S2,A0330,Ba,,8
13540,9_F,ATCGCCAGTGCTAAGATGTT,9,20,51.486312761093025,1.2135369216830083,45.0,2,0.0,Ft_2,F,9_R,ACAACCTATGATTTACTTGCA,21,47.287336192857474,2.9854396465525284,33.33333333333333,3,0.14285714285714285,R,S4,A0605,Ba,,3493
13541,9_F,ATCGCCAGTGCTAAGATGTT,9,20,51.486312761093025,1.2135369216830083,45.0,2,0.0,Ft_2,F,9_R,ACAACCTATGATTTACTTGCA,21,47.287336192857474,2.9854396465525284,33.33333333333333,3,0.14285714285714285,R,S5,A0615,Ba,,13
13542,9_F,ATCGCCAGTGCTAAGATGTT,9,20,51.486312761093025,1.2135369216830083,45.0,2,0.0,Ft_2,F,9_R,ACAACCTATGATTTACTTGCA,21,47.287336192857474,2.9854396465525284,33.33333333333333,3,0.14285714285714285,R,S6,A0706,Ba,,6
13543,9_F,ATCGCCAGTGCTAAGATGTT,9,20,51.486312761093025,1.2135369216830083,45.0,2,0.0,Ft_2,F,9_R,ACAACCTATGATTTACTTGCA,21,47.287336192857474,2.9854396465525284,33.33333333333333,3,0.14285714285714285,R,S2,A0330,Ba,,8
13613,9_F,ATCGCCAGTGCTAAGATGTT,9,20,51.486312761093025,1.2135369216830083,45.0,2,0.0,Ft_2,F,9_R,ACAACCTATGATTTACTTGCA,21,47.287336192857474,2.9854396465525284,33.33333333333333,3,0.14285714285714285,R,S144,BA-BaBTSeqBa007P2--xx-xxx-xxxx-021-SF,Ba,,587
10869,9_F,ATCTAAATACACGTGCGG,9,18,46.64826005855907,1.81195193280206,44.444444444444436,3,0.16666666666666666,Ba_1,F,9_R,GGTTTCTACTGTGTATGTTG,20,45.92034864664402,1.0840405208870152,40.0,3,0.15,R,S144,BA-BaBTSeqBa007P2--xx-xxx-xxxx-021-SF,Ba,,587
11065,9_F,ATCTAAATACACGTGCGG,9,18,46.64826005855907,1.81195193280206,44.444444444444436,3,0.16666666666666666,Ba_2,F,9_R,GGTTTCTACTGTGTATGTTG,20,45.92034864664402,1.0840405208870152,40.0,3,0.15,R,S144,BA-BaBTSeqBa007P2--xx-xxx-xxxx-021-SF,Ba,,587
10992,9_F,ATCTAAATACACGTGCGG,9,18,46.64826005855907,1.81195193280206,44.444444444444436,3,0.16666666666666666,Ba_2,F,9_R,GGTTTCTACTGTGTATGTTG,20,45.92034864664402,1.0840405208870152,40.0,3,0.15,R,S4,A0605,Ba,,3493
10993,9_F,ATCTAAATACACGTGCGG,9,18,46.64826005855907,1.81195193280206,44.444444444444436,3,0.16666666666666666,Ba_2,F,9_R,GGTTTCTACTGTGTATGTTG,20,45.92034864664402,1.0840405208870152,40.0,3,0.15,R,S5,A0615,Ba,,13
10994,9_F,ATCTAAATACACGTGCGG,9,18,46.64826005855907,1.81195193280206,44.444444444444436,3,0.16666666666666666,Ba_2,F,9_R,GGTTTCTACTGTGTATGTTG,20,45.92034864664402,1.0840405208870152,40.0,3,0.15,R,S6,A0706,Ba,,6
10995,9_F,ATCTAAATACACGTGCGG,9,18,46.64826005855907,1.81195193280206,44.444444444444436,3,0.16666666666666666,Ba_2,F,9_R,GGTTTCTACTGTGTATGTTG,20,45.92034864664402,1.0840405208870152,40.0,3,0.15,R,S2,A0330,Ba,,8
11261,9_F,ATCTAAATACACGTGCGG,9,18,46.64826005855907,1.81195193280206,44.444444444444436,3,0.16666666666666666,Ba_3,F,9_R,GGTTTCTACTGTGTATGTTG,20,45.92034864664402,1.0840405208870152,40.0,3,0.15,R,S144,BA-BaBTSeqBa007P2--xx-xxx-xxxx-021-SF,Ba,,587
10799,9_F,ATCTAAATACACGTGCGG,9,18,46.64826005855907,1.81195193280206,44.444444444444436,3,0.16666666666666666,Ba_1,F,9_R,GGTTTCTACTGTGTATGTTG,20,45.92034864664402,1.0840405208870152,40.0,3,0.15,R,S2,A0330,Ba,,8
10798,9_F,ATCTAAATACACGTGCGG,9,18,46.64826005855907,1.81195193280206,44.444444444444436,3,0.16666666666666666,Ba_1,F,9_R,GGTTTCTACTGTGTATGTTG,20,45.92034864664402,1.0840405208870152,40.0,3,0.15,R,S6,A0706,Ba,,6
10797,9_F,ATCTAAATACACGTGCGG,9,18,46.64826005855907,1.81195193280206,44.444444444444436,3,0.16666666666666666,Ba_1,F,9_R,GGTTTCTACTGTGTATGTTG,20,45.92034864664402,1.0840405208870152,40.0,3,0.15,R,S5,A0615,Ba,,13
10796,9_F,ATCTAAATACACGTGCGG,9,18,46.64826005855907,1.81195193280206,44.444444444444436,3,0.16666666666666666,Ba_1,F,9_R,GGTTTCTACTGTGTATGTTG,20,45.92034864664402,1.0840405208870152,40.0,3,0.15,R,S4,A0605,Ba,,3493
11190,9_F,ATCTAAATACACGTGCGG,9,18,46.64826005855907,1.81195193280206,44.444444444444436,3,0.16666666666666666,Ba_3,F,9_R,GGTTTCTACTGTGTATGTTG,20,45.92034864664402,1.0840405208870152,40.0,3,0.15,R,S6,A0706,Ba,,6
11189,9_F,ATCTAAATACACGTGCGG,9,18,46.64826005855907,1.81195193280206,44.444444444444436,3,0.16666666666666666,Ba_3,F,9_R,GGTTTCTACTGTGTATGTTG,20,45.92034864664402,1.0840405208870152,40.0,3,0.15,R,S5,A0615,Ba,,13
11191,9_F,ATCTAAATACACGTGCGG,9,18,46.64826005855907,1.81195193280206,44.444444444444436,3,0.16666666666666666,Ba_3,F,9_R,GGTTTCTACTGTGTATGTTG,20,45.92034864664402,1.0840405208870152,40.0,3,0.15,R,S2,A0330,Ba,,8
11188,9_F,ATCTAAATACACGTGCGG,9,18,46.64826005855907,1.81195193280206,44.444444444444436,3,0.16666666666666666,Ba_3,F,9_R,GGTTTCTACTGTGTATGTTG,20,45.92034864664402,1.0840405208870152,40.0,3,0.15,R,S4,A0605,Ba,,3493
39685,10_F,TTTCTTTCACTTTATCTGGTA,10,21,44.194614412847386,0.6416937129096141,28.57142857142857,3,0.42857142857142855,Ba_3,F,10_R,AGGCAAATTATGCTGCAA,18,47.03904754368465,2.2027394179276603,38.888888888888886,3,0.16666666666666666,R,S5,A0615,Ba,,4
39683,10_F,TTTCTTTCACTTTATCTGGTA,10,21,44.194614412847386,0.6416937129096141,28.57142857142857,3,0.42857142857142855,Ba_3,F,10_R,AGGCAAATTATGCTGCAA,18,47.03904754368465,2.2027394179276603,38.888888888888886,3,0.16666666666666666,R,S2,A0330,Ba,,2
39684,10_F,TTTCTTTCACTTTATCTGGTA,10,21,44.194614412847386,0.6416937129096141,28.57142857142857,3,0.42857142857142855,Ba_3,F,10_R,AGGCAAATTATGCTGCAA,18,47.03904754368465,2.2027394179276603,38.888888888888886,3,0.16666666666666666,R,S4,A0605,Ba,,2934
39682,10_F,TTTCTTTCACTTTATCTGGTA,10,21,44.194614412847386,0.6416937129096141,28.57142857142857,3,0.42857142857142855,Ba_3,F,10_R,AGGCAAATTATGCTGCAA,18,47.03904754368465,2.2027394179276603,38.888888888888886,3,0.16666666666666666,R,S6,A0706,Ba,,11
39356,10_F,TTTCTTTCACTTTATCTGGTA,10,21,44.194614412847386,0.6416937129096141,28.57142857142857,3,0.42857142857142855,Ba_1,F,10_R,AGGCAAATTATGCTGCAA,18,47.03904754368465,2.2027394179276603,38.888888888888886,3,0.16666666666666666,R,S4,A0605,Ba,,2934
39357,10_F,TTTCTTTCACTTTATCTGGTA,10,21,44.194614412847386,0.6416937129096141,28.57142857142857,3,0.42857142857142855,Ba_1,F,10_R,AGGCAAATTATGCTGCAA,18,47.03904754368465,2.2027394179276603,38.888888888888886,3,0.16666666666666666,R,S5,A0615,Ba,,4
39421,10_F,TTTCTTTCACTTTATCTGGTA,10,21,44.194614412847386,0.6416937129096141,28.57142857142857,3,0.42857142857142855,Ba_1,F,10_R,AGGCAAATTATGCTGCAA,18,47.03904754368465,2.2027394179276603,38.888888888888886,3,0.16666666666666666,R,S144,BA-BaBTSeqBa007P2--xx-xxx-xxxx-021-SF,Ba,,204
39585,10_F,TTTCTTTCACTTTATCTGGTA,10,21,44.194614412847386,0.6416937129096141,28.57142857142857,3,0.42857142857142855,Ba_2,F,10_R,AGGCAAATTATGCTGCAA,18,47.03904754368465,2.2027394179276603,38.888888888888886,3,0.16666666666666666,R,S144,BA-BaBTSeqBa007P2--xx-xxx-xxxx-021-SF,Ba,,204
39521,10_F,TTTCTTTCACTTTATCTGGTA,10,21,44.194614412847386,0.6416937129096141,28.57142857142857,3,0.42857142857142855,Ba_2,F,10_R,AGGCAAATTATGCTGCAA,18,47.03904754368465,2.2027394179276603,38.888888888888886,3,0.16666666666666666,R,S5,A0615,Ba,,4
39518,10_F,TTTCTTTCACTTTATCTGGTA,10,21,44.194614412847386,0.6416937129096141,28.57142857142857,3,0.42857142857142855,Ba_2,F,10_R,AGGCAAATTATGCTGCAA,18,47.03904754368465,2.2027394179276603,38.888888888888886,3,0.16666666666666666,R,S6,A0706,Ba,,11
39519,10_F,TTTCTTTCACTTTATCTGGTA,10,21,44.194614412847386,0.6416937129096141,28.57142857142857,3,0.42857142857142855,Ba_2,F,10_R,AGGCAAATTATGCTGCAA,18,47.03904754368465,2.2027394179276603,38.888888888888886,3,0.16666666666666666,R,S2,A0330,Ba,,2
39520,10_F,TTTCTTTCACTTTATCTGGTA,10,21,44.194614412847386,0.6416937129096141,28.57142857142857,3,0.42857142857142855,Ba_2,F,10_R,AGGCAAATTATGCTGCAA,18,47.03904754368465,2.2027394179276603,38.888888888888886,3,0.16666666666666666,R,S4,A0605,Ba,,2934
40338,10_F,TTTCTTTCACTTTATCTGGTA,10,21,44.194614412847386,3.048449212668223,28.57142857142857,3,0.42857142857142855,Ba_6_V4,F,10_R,AGGCAAATTATGCTGCAA,18,47.03904754368465,0.2040160818309502,38.888888888888886,3,0.16666666666666666,R,S6,A0706,Ba,,11
40339,10_F,TTTCTTTCACTTTATCTGGTA,10,21,44.194614412847386,3.048449212668223,28.57142857142857,3,0.42857142857142855,Ba_6_V4,F,10_R,AGGCAAATTATGCTGCAA,18,47.03904754368465,0.2040160818309502,38.888888888888886,3,0.16666666666666666,R,S2,A0330,Ba,,2
40340,10_F,TTTCTTTCACTTTATCTGGTA,10,21,44.194614412847386,3.048449212668223,28.57142857142857,3,0.42857142857142855,Ba_6_V4,F,10_R,AGGCAAATTATGCTGCAA,18,47.03904754368465,0.2040160818309502,38.888888888888886,3,0.16666666666666666,R,S4,A0605,Ba,,2934
40341,10_F,TTTCTTTCACTTTATCTGGTA,10,21,44.194614412847386,3.048449212668223,28.57142857142857,3,0.42857142857142855,Ba_6_V4,F,10_R,AGGCAAATTATGCTGCAA,18,47.03904754368465,0.2040160818309502,38.888888888888886,3,0.16666666666666666,R,S5,A0615,Ba,,4
40177,10_F,TTGCAGTCCTCCGCTCACAT,10,20,55.94727890204916,9.645097162463275,55.00000000000001,2,0.0,Ba_5_V3,F,10_R,AGGCAAATTATGCTGCAA,18,47.03904754368465,0.7368658040987697,38.888888888888886,3,0.16666666666666666,R,S5,A0615,Ba,,4