,Primer_Name_L,Seq_L,Amplicon,Primer_Length_L,Tm_L,Delta Tm_L,GC_Content_L,Length_Longest_Homopolymer_L,Percent_Homopolymer_L,exp,flank_L,Primer_Name_R,Seq_R,Primer_Length_R,Tm_R,Delta Tm_R,GC_Content_R,Length_Longest_Homopolymer_R,Percent_Homopolymer_R,flank_R,sample_id,sample_name,species,strain,n_reads
40241,10_F,TTGCAGTCCTCCGCTCACAT,10,20,55.94727890204916,9.645097162463275,55.00000000000001,2,0.0,Ba_5_V3,F,10_R,AGGCAAATTATGCTGCAA,18,47.03904754368465,0.7368658040987697,38.888888888888886,3,0.16666666666666666,R,S144,BA-BaBTSeqBa007P2--xx-xxx-xxxx-021-SF,Ba,,204
40569,10_F,TTTCTTTCACTTTATCTGGTA,10,21,44.194614412847386,3.0205092478952267,28.57142857142857,3,0.42857142857142855,Ba_V45,F,10_R,AGGCAAATTATGCTGCAA,18,47.03904754368465,0.1760761170579528,38.888888888888886,3,0.16666666666666666,R,S144,BA-BaBTSeqBa007P2--xx-xxx-xxxx-021-SF,Ba,,204
40405,10_F,TTTCTTTCACTTTATCTGGTA,10,21,44.194614412847386,3.048449212668223,28.57142857142857,3,0.42857142857142855,Ba_6_V4,F,10_R,AGGCAAATTATGCTGCAA,18,47.03904754368465,0.2040160818309502,38.888888888888886,3,0.16666666666666666,R,S144,BA-BaBTSeqBa007P2--xx-xxx-xxxx-021-SF,Ba,,204
40502,10_F,TTTCTTTCACTTTATCTGGTA,10,21,44.194614412847386,3.0205092478952267,28.57142857142857,3,0.42857142857142855,Ba_V45,F,10_R,AGGCAAATTATGCTGCAA,18,47.03904754368465,0.1760761170579528,38.888888888888886,3,0.16666666666666666,R,S6,A0706,Ba,,11
40503,10_F,TTTCTTTCACTTTATCTGGTA,10,21,44.194614412847386,3.0205092478952267,28.57142857142857,3,0.42857142857142855,Ba_V45,F,10_R,AGGCAAATTATGCTGCAA,18,47.03904754368465,0.1760761170579528,38.888888888888886,3,0.16666666666666666,R,S2,A0330,Ba,,2
40504,10_F,TTTCTTTCACTTTATCTGGTA,10,21,44.194614412847386,3.0205092478952267,28.57142857142857,3,0.42857142857142855,Ba_V45,F,10_R,AGGCAAATTATGCTGCAA,18,47.03904754368465,0.1760761170579528,38.888888888888886,3,0.16666666666666666,R,S4,A0605,Ba,,2934
40505,10_F,TTTCTTTCACTTTATCTGGTA,10,21,44.194614412847386,3.0205092478952267,28.57142857142857,3,0.42857142857142855,Ba_V45,F,10_R,AGGCAAATTATGCTGCAA,18,47.03904754368465,0.1760761170579528,38.888888888888886,3,0.16666666666666666,R,S5,A0615,Ba,,4
40176,10_F,TTGCAGTCCTCCGCTCACAT,10,20,55.94727890204916,9.645097162463275,55.00000000000001,2,0.0,Ba_5_V3,F,10_R,AGGCAAATTATGCTGCAA,18,47.03904754368465,0.7368658040987697,38.888888888888886,3,0.16666666666666666,R,S4,A0605,Ba,,2934
40175,10_F,TTGCAGTCCTCCGCTCACAT,10,20,55.94727890204916,9.645097162463275,55.00000000000001,2,0.0,Ba_5_V3,F,10_R,AGGCAAATTATGCTGCAA,18,47.03904754368465,0.7368658040987697,38.888888888888886,3,0.16666666666666666,R,S2,A0330,Ba,,2
40174,10_F,TTGCAGTCCTCCGCTCACAT,10,20,55.94727890204916,9.645097162463275,55.00000000000001,2,0.0,Ba_5_V3,F,10_R,AGGCAAATTATGCTGCAA,18,47.03904754368465,0.7368658040987697,38.888888888888886,3,0.16666666666666666,R,S6,A0706,Ba,,11
39846,10_F,TTGCAGTCCTCCGCTCACAT,10,20,55.94727890204916,9.645097162463275,55.00000000000001,2,0.0,Ba_4,F,10_R,AGGCAAATTATGCTGCAA,18,47.03904754368465,0.7368658040987697,38.888888888888886,3,0.16666666666666666,R,S6,A0706,Ba,,11
39847,10_F,TTGCAGTCCTCCGCTCACAT,10,20,55.94727890204916,9.645097162463275,55.00000000000001,2,0.0,Ba_4,F,10_R,AGGCAAATTATGCTGCAA,18,47.03904754368465,0.7368658040987697,38.888888888888886,3,0.16666666666666666,R,S2,A0330,Ba,,2
39848,10_F,TTGCAGTCCTCCGCTCACAT,10,20,55.94727890204916,9.645097162463275,55.00000000000001,2,0.0,Ba_4,F,10_R,AGGCAAATTATGCTGCAA,18,47.03904754368465,0.7368658040987697,38.888888888888886,3,0.16666666666666666,R,S4,A0605,Ba,,2934
39849,10_F,TTGCAGTCCTCCGCTCACAT,10,20,55.94727890204916,9.645097162463275,55.00000000000001,2,0.0,Ba_4,F,10_R,AGGCAAATTATGCTGCAA,18,47.03904754368465,0.7368658040987697,38.888888888888886,3,0.16666666666666666,R,S5,A0615,Ba,,4
39913,10_F,TTGCAGTCCTCCGCTCACAT,10,20,55.94727890204916,9.645097162463275,55.00000000000001,2,0.0,Ba_4,F,10_R,AGGCAAATTATGCTGCAA,18,47.03904754368465,0.7368658040987697,38.888888888888886,3,0.16666666666666666,R,S144,BA-BaBTSeqBa007P2--xx-xxx-xxxx-021-SF,Ba,,204
39749,10_F,TTTCTTTCACTTTATCTGGTA,10,21,44.194614412847386,0.6416937129096141,28.57142857142857,3,0.42857142857142855,Ba_3,F,10_R,AGGCAAATTATGCTGCAA,18,47.03904754368465,2.2027394179276603,38.888888888888886,3,0.16666666666666666,R,S144,BA-BaBTSeqBa007P2--xx-xxx-xxxx-021-SF,Ba,,204
39355,10_F,TTTCTTTCACTTTATCTGGTA,10,21,44.194614412847386,0.6416937129096141,28.57142857142857,3,0.42857142857142855,Ba_1,F,10_R,AGGCAAATTATGCTGCAA,18,47.03904754368465,2.2027394179276603,38.888888888888886,3,0.16666666666666666,R,S2,A0330,Ba,,2
40077,10_F,TTTCTTTCACTTTATCTGGTA,10,21,44.194614412847386,2.277903034265826,28.57142857142857,3,0.42857142857142855,Ba_5_V35,F,10_R,AGGCAAATTATGCTGCAA,18,47.03904754368465,0.5665300965714479,38.888888888888886,3,0.16666666666666666,R,S144,BA-BaBTSeqBa007P2--xx-xxx-xxxx-021-SF,Ba,,204
40010,10_F,TTTCTTTCACTTTATCTGGTA,10,21,44.194614412847386,2.277903034265826,28.57142857142857,3,0.42857142857142855,Ba_5_V35,F,10_R,AGGCAAATTATGCTGCAA,18,47.03904754368465,0.5665300965714479,38.888888888888886,3,0.16666666666666666,R,S6,A0706,Ba,,11
40011,10_F,TTTCTTTCACTTTATCTGGTA,10,21,44.194614412847386,2.277903034265826,28.57142857142857,3,0.42857142857142855,Ba_5_V35,F,10_R,AGGCAAATTATGCTGCAA,18,47.03904754368465,0.5665300965714479,38.888888888888886,3,0.16666666666666666,R,S2,A0330,Ba,,2
40012,10_F,TTTCTTTCACTTTATCTGGTA,10,21,44.194614412847386,2.277903034265826,28.57142857142857,3,0.42857142857142855,Ba_5_V35,F,10_R,AGGCAAATTATGCTGCAA,18,47.03904754368465,0.5665300965714479,38.888888888888886,3,0.16666666666666666,R,S4,A0605,Ba,,2934
40013,10_F,TTTCTTTCACTTTATCTGGTA,10,21,44.194614412847386,2.277903034265826,28.57142857142857,3,0.42857142857142855,Ba_5_V35,F,10_R,AGGCAAATTATGCTGCAA,18,47.03904754368465,0.5665300965714479,38.888888888888886,3,0.16666666666666666,R,S5,A0615,Ba,,4
39354,10_F,TTTCTTTCACTTTATCTGGTA,10,21,44.194614412847386,0.6416937129096141,28.57142857142857,3,0.42857142857142855,Ba_1,F,10_R,AGGCAAATTATGCTGCAA,18,47.03904754368465,2.2027394179276603,38.888888888888886,3,0.16666666666666666,R,S6,A0706,Ba,,11
40897,10_F,CGACGGTGGTTTAATTGGTGG,10,21,54.078803631713974,4.021615787900089,52.38095238095239,3,0.14285714285714285,Ft_2_V2,F,10_R,CAGCAACACTAGTACCACAATCGC,24,56.38925277415683,6.332064930342938,50.0,2,0.0,R,S144,BA-BaBTSeqBa007P2--xx-xxx-xxxx-021-SF,Ba,,204
41486,10_F,CTAACGCACCACTAATAAA,10,19,44.53955570444572,7.457674516038673,36.84210526315789,3,0.15789473684210525,Yp_2,F,10_R,GGTGTTGCGATGTTTGTGACG,21,55.30142343089375,3.3041932104093585,52.38095238095239,3,0.14285714285714285,R,S6,A0706,Ba,,11
41487,10_F,CTAACGCACCACTAATAAA,10,19,44.53955570444572,7.457674516038673,36.84210526315789,3,0.15789473684210525,Yp_2,F,10_R,GGTGTTGCGATGTTTGTGACG,21,55.30142343089375,3.3041932104093585,52.38095238095239,3,0.14285714285714285,R,S2,A0330,Ba,,2
41488,10_F,CTAACGCACCACTAATAAA,10,19,44.53955570444572,7.457674516038673,36.84210526315789,3,0.15789473684210525,Yp_2,F,10_R,GGTGTTGCGATGTTTGTGACG,21,55.30142343089375,3.3041932104093585,52.38095238095239,3,0.14285714285714285,R,S4,A0605,Ba,,2934
41489,10_F,CTAACGCACCACTAATAAA,10,19,44.53955570444572,7.457674516038673,36.84210526315789,3,0.15789473684210525,Yp_2,F,10_R,GGTGTTGCGATGTTTGTGACG,21,55.30142343089375,3.3041932104093585,52.38095238095239,3,0.14285714285714285,R,S5,A0615,Ba,,4
41553,10_F,CTAACGCACCACTAATAAA,10,19,44.53955570444572,7.457674516038673,36.84210526315789,3,0.15789473684210525,Yp_2,F,10_R,GGTGTTGCGATGTTTGTGACG,21,55.30142343089375,3.3041932104093585,52.38095238095239,3,0.14285714285714285,R,S144,BA-BaBTSeqBa007P2--xx-xxx-xxxx-021-SF,Ba,,204
40733,10_F,TAAGCTTACCAGATGTCG,10,18,45.38071684615278,3.4755747540712387,44.444444444444436,2,0.0,Ft_1,F,10_R,CAGCAACACTAGTACCAC,18,46.785832765291566,2.0704588349324595,50.0,2,0.0,R,S144,BA-BaBTSeqBa007P2--xx-xxx-xxxx-021-SF,Ba,,204
40830,10_F,CGACGGTGGTTTAATTGGTGG,10,21,54.078803631713974,4.021615787900089,52.38095238095239,3,0.14285714285714285,Ft_2_V2,F,10_R,CAGCAACACTAGTACCACAATCGC,24,56.38925277415683,6.332064930342938,50.0,2,0.0,R,S6,A0706,Ba,,11
40831,10_F,CGACGGTGGTTTAATTGGTGG,10,21,54.078803631713974,4.021615787900089,52.38095238095239,3,0.14285714285714285,Ft_2_V2,F,10_R,CAGCAACACTAGTACCACAATCGC,24,56.38925277415683,6.332064930342938,50.0,2,0.0,R,S2,A0330,Ba,,2
40832,10_F,CGACGGTGGTTTAATTGGTGG,10,21,54.078803631713974,4.021615787900089,52.38095238095239,3,0.14285714285714285,Ft_2_V2,F,10_R,CAGCAACACTAGTACCACAATCGC,24,56.38925277415683,6.332064930342938,50.0,2,0.0,R,S4,A0605,Ba,,2934
40833,10_F,CGACGGTGGTTTAATTGGTGG,10,21,54.078803631713974,4.021615787900089,52.38095238095239,3,0.14285714285714285,Ft_2_V2,F,10_R,CAGCAACACTAGTACCACAATCGC,24,56.38925277415683,6.332064930342938,50.0,2,0.0,R,S5,A0615,Ba,,4
40666,10_F,TAAGCTTACCAGATGTCG,10,18,45.38071684615278,3.4755747540712387,44.444444444444436,2,0.0,Ft_1,F,10_R,CAGCAACACTAGTACCAC,18,46.785832765291566,2.0704588349324595,50.0,2,0.0,R,S6,A0706,Ba,,11
40667,10_F,TAAGCTTACCAGATGTCG,10,18,45.38071684615278,3.4755747540712387,44.444444444444436,2,0.0,Ft_1,F,10_R,CAGCAACACTAGTACCAC,18,46.785832765291566,2.0704588349324595,50.0,2,0.0,R,S2,A0330,Ba,,2
40669,10_F,TAAGCTTACCAGATGTCG,10,18,45.38071684615278,3.4755747540712387,44.444444444444436,2,0.0,Ft_1,F,10_R,CAGCAACACTAGTACCAC,18,46.785832765291566,2.0704588349324595,50.0,2,0.0,R,S5,A0615,Ba,,4
40668,10_F,TAAGCTTACCAGATGTCG,10,18,45.38071684615278,3.4755747540712387,44.444444444444436,2,0.0,Ft_1,F,10_R,CAGCAACACTAGTACCAC,18,46.785832765291566,2.0704588349324595,50.0,2,0.0,R,S4,A0605,Ba,,2934
41158,10_F,CATCTAACGCACCACTAATAA,10,21,47.758899942435114,3.4073117122490046,38.095238095238095,2,0.0,Yp_1_V2,F,10_R,GTCTTTTATTGGTTATGGTGGAT,23,48.75932361957757,2.4068880351065403,34.78260869565217,4,0.17391304347826084,R,S6,A0706,Ba,,11
41159,10_F,CATCTAACGCACCACTAATAA,10,21,47.758899942435114,3.4073117122490046,38.095238095238095,2,0.0,Yp_1_V2,F,10_R,GTCTTTTATTGGTTATGGTGGAT,23,48.75932361957757,2.4068880351065403,34.78260869565217,4,0.17391304347826084,R,S2,A0330,Ba,,2
41160,10_F,CATCTAACGCACCACTAATAA,10,21,47.758899942435114,3.4073117122490046,38.095238095238095,2,0.0,Yp_1_V2,F,10_R,GTCTTTTATTGGTTATGGTGGAT,23,48.75932361957757,2.4068880351065403,34.78260869565217,4,0.17391304347826084,R,S4,A0605,Ba,,2934
41161,10_F,CATCTAACGCACCACTAATAA,10,21,47.758899942435114,3.4073117122490046,38.095238095238095,2,0.0,Yp_1_V2,F,10_R,GTCTTTTATTGGTTATGGTGGAT,23,48.75932361957757,2.4068880351065403,34.78260869565217,4,0.17391304347826084,R,S5,A0615,Ba,,4
40994,10_F,CGACGGTGGTTTAATTGGTGG,10,21,54.078803631713974,3.8060277923039716,52.38095238095239,3,0.14285714285714285,Ft_2,F,10_R,CAGCAACACTAGTACCACAATCGC,24,56.38925277415683,6.116476934746821,50.0,2,0.0,R,S6,A0706,Ba,,11
40995,10_F,CGACGGTGGTTTAATTGGTGG,10,21,54.078803631713974,3.8060277923039716,52.38095238095239,3,0.14285714285714285,Ft_2,F,10_R,CAGCAACACTAGTACCACAATCGC,24,56.38925277415683,6.116476934746821,50.0,2,0.0,R,S2,A0330,Ba,,2
40996,10_F,CGACGGTGGTTTAATTGGTGG,10,21,54.078803631713974,3.8060277923039716,52.38095238095239,3,0.14285714285714285,Ft_2,F,10_R,CAGCAACACTAGTACCACAATCGC,24,56.38925277415683,6.116476934746821,50.0,2,0.0,R,S4,A0605,Ba,,2934
40997,10_F,CGACGGTGGTTTAATTGGTGG,10,21,54.078803631713974,3.8060277923039716,52.38095238095239,3,0.14285714285714285,Ft_2,F,10_R,CAGCAACACTAGTACCACAATCGC,24,56.38925277415683,6.116476934746821,50.0,2,0.0,R,S5,A0615,Ba,,4
41225,10_F,CATCTAACGCACCACTAATAA,10,21,47.758899942435114,3.4073117122490046,38.095238095238095,2,0.0,Yp_1_V2,F,10_R,GTCTTTTATTGGTTATGGTGGAT,23,48.75932361957757,2.4068880351065403,34.78260869565217,4,0.17391304347826084,R,S144,BA-BaBTSeqBa007P2--xx-xxx-xxxx-021-SF,Ba,,204
41061,10_F,CGACGGTGGTTTAATTGGTGG,10,21,54.078803631713974,3.8060277923039716,52.38095238095239,3,0.14285714285714285,Ft_2,F,10_R,CAGCAACACTAGTACCACAATCGC,24,56.38925277415683,6.116476934746821,50.0,2,0.0,R,S144,BA-BaBTSeqBa007P2--xx-xxx-xxxx-021-SF,Ba,,204
41389,10_F,CATCTAACGCACCACTAATAA,10,21,47.758899942435114,3.6659898102075767,38.095238095238095,2,0.0,Yp_1,F,10_R,GTCTTTTATTGGTTATGGTGGAT,23,48.75932361957757,2.6655661330651133,34.78260869565217,4,0.17391304347826084,R,S144,BA-BaBTSeqBa007P2--xx-xxx-xxxx-021-SF,Ba,,204
41325,10_F,CATCTAACGCACCACTAATAA,10,21,47.758899942435114,3.6659898102075767,38.095238095238095,2,0.0,Yp_1,F,10_R,GTCTTTTATTGGTTATGGTGGAT,23,48.75932361957757,2.6655661330651133,34.78260869565217,4,0.17391304347826084,R,S5,A0615,Ba,,4
41324,10_F,CATCTAACGCACCACTAATAA,10,21,47.758899942435114,3.6659898102075767,38.095238095238095,2,0.0,Yp_1,F,10_R,GTCTTTTATTGGTTATGGTGGAT,23,48.75932361957757,2.6655661330651133,34.78260869565217,4,0.17391304347826084,R,S4,A0605,Ba,,2934
41323,10_F,CATCTAACGCACCACTAATAA,10,21,47.758899942435114,3.6659898102075767,38.095238095238095,2,0.0,Yp_1,F,10_R,GTCTTTTATTGGTTATGGTGGAT,23,48.75932361957757,2.6655661330651133,34.78260869565217,4,0.17391304347826084,R,S2,A0330,Ba,,2
41322,10_F,CATCTAACGCACCACTAATAA,10,21,47.758899942435114,3.6659898102075767,38.095238095238095,2,0.0,Yp_1,F,10_R,GTCTTTTATTGGTTATGGTGGAT,23,48.75932361957757,2.6655661330651133,34.78260869565217,4,0.17391304347826084,R,S6,A0706,Ba,,11
41650,11_F,CCTGCTAAAAAGAAACGAATT,11,21,47.3172650641265,2.480956938369502,33.33333333333333,5,0.3809523809523809,Ba_1,F,11_R,TATACCTTCTATACTCATGTTAA,23,43.52213947547989,1.3141686502771108,26.08695652173913,2,0.0,R,S6,A0706,Ba,,0
42138,11_F,AGCTAACCCTGAAGAAATATA,11,21,45.42385582000247,0.8783259195834177,33.33333333333333,3,0.2857142857142857,Ba_4,F,11_R,GAGGAAGAGTAATGGTC,17,41.97809257758507,4.324089162000817,47.058823529411754,2,0.0,R,S144,BA-BaBTSeqBa007P2--xx-xxx-xxxx-021-SF,Ba,,14
42279,11_F,AGCTAACCCTGAAGAAATATA,11,21,45.42385582000247,0.8783259195834177,33.33333333333333,3,0.2857142857142857,Ba_5_V3,F,11_R,GAGGAAGAGTAATGGTC,17,41.97809257758507,4.324089162000817,47.058823529411754,2,0.0,R,S144,BA-BaBTSeqBa007P2--xx-xxx-xxxx-021-SF,Ba,,14
42217,11_F,AGCTAACCCTGAAGAAATATA,11,21,45.42385582000247,0.8783259195834177,33.33333333333333,3,0.2857142857142857,Ba_5_V3,F,11_R,GAGGAAGAGTAATGGTC,17,41.97809257758507,4.324089162000817,47.058823529411754,2,0.0,R,S4,A0605,Ba,,160
42216,11_F,AGCTAACCCTGAAGAAATATA,11,21,45.42385582000247,0.8783259195834177,33.33333333333333,3,0.2857142857142857,Ba_5_V3,F,11_R,GAGGAAGAGTAATGGTC,17,41.97809257758507,4.324089162000817,47.058823529411754,2,0.0,R,S2,A0330,Ba,,0
42215,11_F,AGCTAACCCTGAAGAAATATA,11,21,45.42385582000247,0.8783259195834177,33.33333333333333,3,0.2857142857142857,Ba_5_V3,F,11_R,GAGGAAGAGTAATGGTC,17,41.97809257758507,4.324089162000817,47.058823529411754,2,0.0,R,S5,A0615,Ba,,0
42214,11_F,AGCTAACCCTGAAGAAATATA,11,21,45.42385582000247,0.8783259195834177,33.33333333333333,3,0.2857142857142857,Ba_5_V3,F,11_R,GAGGAAGAGTAATGGTC,17,41.97809257758507,4.324089162000817,47.058823529411754,2,0.0,R,S6,A0706,Ba,,0
41997,11_F,CCTGCTAAAAAGAAACGAATT,11,21,47.3172650641265,2.480956938369502,33.33333333333333,5,0.3809523809523809,Ba_3,F,11_R,TATACCTTCTATACTCATGTTAA,23,43.52213947547989,1.3141686502771108,26.08695652173913,2,0.0,R,S144,BA-BaBTSeqBa007P2--xx-xxx-xxxx-021-SF,Ba,,14
41932,11_F,CCTGCTAAAAAGAAACGAATT,11,21,47.3172650641265,2.480956938369502,33.33333333333333,5,0.3809523809523809,Ba_3,F,11_R,TATACCTTCTATACTCATGTTAA,23,43.52213947547989,1.3141686502771108,26.08695652173913,2,0.0,R,S6,A0706,Ba,,0
41934,11_F,CCTGCTAAAAAGAAACGAATT,11,21,47.3172650641265,2.480956938369502,33.33333333333333,5,0.3809523809523809,Ba_3,F,11_R,TATACCTTCTATACTCATGTTAA,23,43.52213947547989,1.3141686502771108,26.08695652173913,2,0.0,R,S2,A0330,Ba,,0
41933,11_F,CCTGCTAAAAAGAAACGAATT,11,21,47.3172650641265,2.480956938369502,33.33333333333333,5,0.3809523809523809,Ba_3,F,11_R,TATACCTTCTATACTCATGTTAA,23,43.52213947547989,1.3141686502771108,26.08695652173913,2,0.0,R,S5,A0615,Ba,,0
41935,11_F,CCTGCTAAAAAGAAACGAATT,11,21,47.3172650641265,2.480956938369502,33.33333333333333,5,0.3809523809523809,Ba_3,F,11_R,TATACCTTCTATACTCATGTTAA,23,43.52213947547989,1.3141686502771108,26.08695652173913,2,0.0,R,S4,A0605,Ba,,160
42074,11_F,AGCTAACCCTGAAGAAATATA,11,21,45.42385582000247,0.8783259195834177,33.33333333333333,3,0.2857142857142857,Ba_4,F,11_R,GAGGAAGAGTAATGGTC,17,41.97809257758507,4.324089162000817,47.058823529411754,2,0.0,R,S5,A0615,Ba,,0
42073,11_F,AGCTAACCCTGAAGAAATATA,11,21,45.42385582000247,0.8783259195834177,33.33333333333333,3,0.2857142857142857,Ba_4,F,11_R,GAGGAAGAGTAATGGTC,17,41.97809257758507,4.324089162000817,47.058823529411754,2,0.0,R,S6,A0706,Ba,,0
42075,11_F,AGCTAACCCTGAAGAAATATA,11,21,45.42385582000247,0.8783259195834177,33.33333333333333,3,0.2857142857142857,Ba_4,F,11_R,GAGGAAGAGTAATGGTC,17,41.97809257758507,4.324089162000817,47.058823529411754,2,0.0,R,S2,A0330,Ba,,0
42076,11_F,AGCTAACCCTGAAGAAATATA,11,21,45.42385582000247,0.8783259195834177,33.33333333333333,3,0.2857142857142857,Ba_4,F,11_R,GAGGAAGAGTAATGGTC,17,41.97809257758507,4.324089162000817,47.058823529411754,2,0.0,R,S4,A0605,Ba,,160
41791,11_F,CCTGCTAAAAAGAAACGAATT,11,21,47.3172650641265,2.480956938369502,33.33333333333333,5,0.3809523809523809,Ba_2,F,11_R,TATACCTTCTATACTCATGTTAA,23,43.52213947547989,1.3141686502771108,26.08695652173913,2,0.0,R,S6,A0706,Ba,,0
41792,11_F,CCTGCTAAAAAGAAACGAATT,11,21,47.3172650641265,2.480956938369502,33.33333333333333,5,0.3809523809523809,Ba_2,F,11_R,TATACCTTCTATACTCATGTTAA,23,43.52213947547989,1.3141686502771108,26.08695652173913,2,0.0,R,S5,A0615,Ba,,0
41794,11_F,CCTGCTAAAAAGAAACGAATT,11,21,47.3172650641265,2.480956938369502,33.33333333333333,5,0.3809523809523809,Ba_2,F,11_R,TATACCTTCTATACTCATGTTAA,23,43.52213947547989,1.3141686502771108,26.08695652173913,2,0.0,R,S4,A0605,Ba,,160
41793,11_F,CCTGCTAAAAAGAAACGAATT,11,21,47.3172650641265,2.480956938369502,33.33333333333333,5,0.3809523809523809,Ba_2,F,11_R,TATACCTTCTATACTCATGTTAA,23,43.52213947547989,1.3141686502771108,26.08695652173913,2,0.0,R,S2,A0330,Ba,,0
41651,11_F,CCTGCTAAAAAGAAACGAATT,11,21,47.3172650641265,2.480956938369502,33.33333333333333,5,0.3809523809523809,Ba_1,F,11_R,TATACCTTCTATACTCATGTTAA,23,43.52213947547989,1.3141686502771108,26.08695652173913,2,0.0,R,S5,A0615,Ba,,0
41652,11_F,CCTGCTAAAAAGAAACGAATT,11,21,47.3172650641265,2.480956938369502,33.33333333333333,5,0.3809523809523809,Ba_1,F,11_R,TATACCTTCTATACTCATGTTAA,23,43.52213947547989,1.3141686502771108,26.08695652173913,2,0.0,R,S2,A0330,Ba,,0
41653,11_F,CCTGCTAAAAAGAAACGAATT,11,21,47.3172650641265,2.480956938369502,33.33333333333333,5,0.3809523809523809,Ba_1,F,11_R,TATACCTTCTATACTCATGTTAA,23,43.52213947547989,1.3141686502771108,26.08695652173913,2,0.0,R,S4,A0605,Ba,,160
41715,11_F,CCTGCTAAAAAGAAACGAATT,11,21,47.3172650641265,2.480956938369502,33.33333333333333,5,0.3809523809523809,Ba_1,F,11_R,TATACCTTCTATACTCATGTTAA,23,43.52213947547989,1.3141686502771108,26.08695652173913,2,0.0,R,S144,BA-BaBTSeqBa007P2--xx-xxx-xxxx-021-SF,Ba,,14
42358,11_F,GTCTTGAAAATATGTGTGGCA,11,21,49.005186687462405,1.7621230619468022,38.095238095238095,4,0.19047619047619047,Ba_6_V4,F,11_R,GAGTAAAAAGGAGGAAGA,18,42.126932024693296,5.116131600822307,38.888888888888886,5,0.2777777777777778,R,S4,A0605,Ba,,160
42357,11_F,GTCTTGAAAATATGTGTGGCA,11,21,49.005186687462405,1.7621230619468022,38.095238095238095,4,0.19047619047619047,Ba_6_V4,F,11_R,GAGTAAAAAGGAGGAAGA,18,42.126932024693296,5.116131600822307,38.888888888888886,5,0.2777777777777778,R,S2,A0330,Ba,,0
42356,11_F,GTCTTGAAAATATGTGTGGCA,11,21,49.005186687462405,1.7621230619468022,38.095238095238095,4,0.19047619047619047,Ba_6_V4,F,11_R,GAGTAAAAAGGAGGAAGA,18,42.126932024693296,5.116131600822307,38.888888888888886,5,0.2777777777777778,R,S5,A0615,Ba,,0
42355,11_F,GTCTTGAAAATATGTGTGGCA,11,21,49.005186687462405,1.7621230619468022,38.095238095238095,4,0.19047619047619047,Ba_6_V4,F,11_R,GAGTAAAAAGGAGGAAGA,18,42.126932024693296,5.116131600822307,38.888888888888886,5,0.2777777777777778,R,S6,A0706,Ba,,0