,Primer_Name_L,Seq_L,Amplicon,Primer_Length_L,Tm_L,Delta Tm_L,GC_Content_L,Length_Longest_Homopolymer_L,Percent_Homopolymer_L,exp,flank_L,Primer_Name_R,Seq_R,Primer_Length_R,Tm_R,Delta Tm_R,GC_Content_R,Length_Longest_Homopolymer_R,Percent_Homopolymer_R,flank_R,sample_id,sample_name,species,strain,n_reads
50742,29_F,GACACCGAAGGGATTA,29,16,43.323250719989176,3.891872940753437,50.0,3,0.1875,Ba_V45,F,29_R,ATTCTCCACTTCCTGTTTCT,20,47.95761892956102,0.7424952688184092,40.0,3,0.15,R,S2,A0330,Ba,,0
50743,29_F,GACACCGAAGGGATTA,29,16,43.323250719989176,3.891872940753437,50.0,3,0.1875,Ba_V45,F,29_R,ATTCTCCACTTCCTGTTTCT,20,47.95761892956102,0.7424952688184092,40.0,3,0.15,R,S5,A0615,Ba,,0
50744,29_F,GACACCGAAGGGATTA,29,16,43.323250719989176,3.891872940753437,50.0,3,0.1875,Ba_V45,F,29_R,ATTCTCCACTTCCTGTTTCT,20,47.95761892956102,0.7424952688184092,40.0,3,0.15,R,S6,A0706,Ba,,0
50189,29_F,CGTGTACTTTTAACTAGATTA,29,21,42.78287467044589,2.0534334553111084,28.57142857142857,4,0.19047619047619047,Ba_1,F,29_R,GCCCTCCTCTTTCTATAA,18,43.91164401230276,0.9246641134542416,44.444444444444436,3,0.3333333333333333,R,S4,A0605,Ba,,102
51017,29_F,CCTCCCTCAGTATCAGTAGCC,29,21,52.870476207572146,0.8732459870877634,57.14285714285714,3,0.14285714285714285,Yp_2,F,29_R,AACGGACCTGCTGTGATGCGATAA,24,58.76996055864493,6.772730338160535,50.0,2,0.0,R,S4,A0605,Ba,,102
51018,29_F,CCTCCCTCAGTATCAGTAGCC,29,21,52.870476207572146,0.8732459870877634,57.14285714285714,3,0.14285714285714285,Yp_2,F,29_R,AACGGACCTGCTGTGATGCGATAA,24,58.76996055864493,6.772730338160535,50.0,2,0.0,R,S2,A0330,Ba,,0
51019,29_F,CCTCCCTCAGTATCAGTAGCC,29,21,52.870476207572146,0.8732459870877634,57.14285714285714,3,0.14285714285714285,Yp_2,F,29_R,AACGGACCTGCTGTGATGCGATAA,24,58.76996055864493,6.772730338160535,50.0,2,0.0,R,S5,A0615,Ba,,0
51020,29_F,CCTCCCTCAGTATCAGTAGCC,29,21,52.870476207572146,0.8732459870877634,57.14285714285714,3,0.14285714285714285,Yp_2,F,29_R,AACGGACCTGCTGTGATGCGATAA,24,58.76996055864493,6.772730338160535,50.0,2,0.0,R,S6,A0706,Ba,,0
51061,29_F,CCTCCCTCAGTATCAGTAGCC,29,21,52.870476207572146,0.8732459870877634,57.14285714285714,3,0.14285714285714285,Yp_2,F,29_R,AACGGACCTGCTGTGATGCGATAA,24,58.76996055864493,6.772730338160535,50.0,2,0.0,R,S144,BA-BaBTSeqBa007P2--xx-xxx-xxxx-021-SF,Ba,,0
50925,29_F,CCCTCAGTATCAGTAGCC,29,18,47.35694907542205,4.0679406772206335,55.555555555555564,3,0.16666666666666666,Yp_1,F,29_R,CGTCATATAGGAGCCGACACCGC,23,59.28450291171004,7.859613159067352,60.86956521739131,2,0.0,R,S4,A0605,Ba,,102
50926,29_F,CCCTCAGTATCAGTAGCC,29,18,47.35694907542205,4.0679406772206335,55.555555555555564,3,0.16666666666666666,Yp_1,F,29_R,CGTCATATAGGAGCCGACACCGC,23,59.28450291171004,7.859613159067352,60.86956521739131,2,0.0,R,S2,A0330,Ba,,0
50927,29_F,CCCTCAGTATCAGTAGCC,29,18,47.35694907542205,4.0679406772206335,55.555555555555564,3,0.16666666666666666,Yp_1,F,29_R,CGTCATATAGGAGCCGACACCGC,23,59.28450291171004,7.859613159067352,60.86956521739131,2,0.0,R,S5,A0615,Ba,,0
50928,29_F,CCCTCAGTATCAGTAGCC,29,18,47.35694907542205,4.0679406772206335,55.555555555555564,3,0.16666666666666666,Yp_1,F,29_R,CGTCATATAGGAGCCGACACCGC,23,59.28450291171004,7.859613159067352,60.86956521739131,2,0.0,R,S6,A0706,Ba,,0
50651,29_F,GACACCGAAGGGATTA,29,16,43.323250719989176,3.9198129055264346,50.0,3,0.1875,Ba_6_V4,F,29_R,ATTCTCCACTTCCTGTTTCT,20,47.95761892956102,0.7145553040454118,40.0,3,0.15,R,S5,A0615,Ba,,0
50969,29_F,CCCTCAGTATCAGTAGCC,29,18,47.35694907542205,4.0679406772206335,55.555555555555564,3,0.16666666666666666,Yp_1,F,29_R,CGTCATATAGGAGCCGACACCGC,23,59.28450291171004,7.859613159067352,60.86956521739131,2,0.0,R,S144,BA-BaBTSeqBa007P2--xx-xxx-xxxx-021-SF,Ba,,0
50650,29_F,GACACCGAAGGGATTA,29,16,43.323250719989176,3.9198129055264346,50.0,3,0.1875,Ba_6_V4,F,29_R,ATTCTCCACTTCCTGTTTCT,20,47.95761892956102,0.7145553040454118,40.0,3,0.15,R,S2,A0330,Ba,,0
50325,29_F,CGTGTACTTTTAACTAGATTA,29,21,42.78287467044589,2.0534334553111084,28.57142857142857,4,0.19047619047619047,Ba_2,F,29_R,GCCCTCCTCTTTCTATAA,18,43.91164401230276,0.9246641134542416,44.444444444444436,3,0.3333333333333333,R,S144,BA-BaBTSeqBa007P2--xx-xxx-xxxx-021-SF,Ba,,0
50373,29_F,CGTGTACTTTTAACTAGATTA,29,21,42.78287467044589,2.0534334553111084,28.57142857142857,4,0.19047619047619047,Ba_3,F,29_R,GCCCTCCTCTTTCTATAA,18,43.91164401230276,0.9246641134542416,44.444444444444436,3,0.3333333333333333,R,S4,A0605,Ba,,102
50374,29_F,CGTGTACTTTTAACTAGATTA,29,21,42.78287467044589,2.0534334553111084,28.57142857142857,4,0.19047619047619047,Ba_3,F,29_R,GCCCTCCTCTTTCTATAA,18,43.91164401230276,0.9246641134542416,44.444444444444436,3,0.3333333333333333,R,S2,A0330,Ba,,0
50375,29_F,CGTGTACTTTTAACTAGATTA,29,21,42.78287467044589,2.0534334553111084,28.57142857142857,4,0.19047619047619047,Ba_3,F,29_R,GCCCTCCTCTTTCTATAA,18,43.91164401230276,0.9246641134542416,44.444444444444436,3,0.3333333333333333,R,S5,A0615,Ba,,0
50376,29_F,CGTGTACTTTTAACTAGATTA,29,21,42.78287467044589,2.0534334553111084,28.57142857142857,4,0.19047619047619047,Ba_3,F,29_R,GCCCTCCTCTTTCTATAA,18,43.91164401230276,0.9246641134542416,44.444444444444436,3,0.3333333333333333,R,S6,A0706,Ba,,0
50417,29_F,CGTGTACTTTTAACTAGATTA,29,21,42.78287467044589,2.0534334553111084,28.57142857142857,4,0.19047619047619047,Ba_3,F,29_R,GCCCTCCTCTTTCTATAA,18,43.91164401230276,0.9246641134542416,44.444444444444436,3,0.3333333333333333,R,S144,BA-BaBTSeqBa007P2--xx-xxx-xxxx-021-SF,Ba,,0
50233,29_F,CGTGTACTTTTAACTAGATTA,29,21,42.78287467044589,2.0534334553111084,28.57142857142857,4,0.19047619047619047,Ba_1,F,29_R,GCCCTCCTCTTTCTATAA,18,43.91164401230276,0.9246641134542416,44.444444444444436,3,0.3333333333333333,R,S144,BA-BaBTSeqBa007P2--xx-xxx-xxxx-021-SF,Ba,,0
50649,29_F,GACACCGAAGGGATTA,29,16,43.323250719989176,3.9198129055264346,50.0,3,0.1875,Ba_6_V4,F,29_R,ATTCTCCACTTCCTGTTTCT,20,47.95761892956102,0.7145553040454118,40.0,3,0.15,R,S4,A0605,Ba,,102
50191,29_F,CGTGTACTTTTAACTAGATTA,29,21,42.78287467044589,2.0534334553111084,28.57142857142857,4,0.19047619047619047,Ba_1,F,29_R,GCCCTCCTCTTTCTATAA,18,43.91164401230276,0.9246641134542416,44.444444444444436,3,0.3333333333333333,R,S5,A0615,Ba,,0
50192,29_F,CGTGTACTTTTAACTAGATTA,29,21,42.78287467044589,2.0534334553111084,28.57142857142857,4,0.19047619047619047,Ba_1,F,29_R,GCCCTCCTCTTTCTATAA,18,43.91164401230276,0.9246641134542416,44.444444444444436,3,0.3333333333333333,R,S6,A0706,Ba,,0
50281,29_F,CGTGTACTTTTAACTAGATTA,29,21,42.78287467044589,2.0534334553111084,28.57142857142857,4,0.19047619047619047,Ba_2,F,29_R,GCCCTCCTCTTTCTATAA,18,43.91164401230276,0.9246641134542416,44.444444444444436,3,0.3333333333333333,R,S4,A0605,Ba,,102
50282,29_F,CGTGTACTTTTAACTAGATTA,29,21,42.78287467044589,2.0534334553111084,28.57142857142857,4,0.19047619047619047,Ba_2,F,29_R,GCCCTCCTCTTTCTATAA,18,43.91164401230276,0.9246641134542416,44.444444444444436,3,0.3333333333333333,R,S2,A0330,Ba,,0
50283,29_F,CGTGTACTTTTAACTAGATTA,29,21,42.78287467044589,2.0534334553111084,28.57142857142857,4,0.19047619047619047,Ba_2,F,29_R,GCCCTCCTCTTTCTATAA,18,43.91164401230276,0.9246641134542416,44.444444444444436,3,0.3333333333333333,R,S5,A0615,Ba,,0
50284,29_F,CGTGTACTTTTAACTAGATTA,29,21,42.78287467044589,2.0534334553111084,28.57142857142857,4,0.19047619047619047,Ba_2,F,29_R,GCCCTCCTCTTTCTATAA,18,43.91164401230276,0.9246641134542416,44.444444444444436,3,0.3333333333333333,R,S6,A0706,Ba,,0
50557,29_F,CGTGTACTTTTAACTAGATTA,29,21,42.78287467044589,3.519307069139998,28.57142857142857,4,0.19047619047619047,Ba_5_V3,F,29_R,GCCCTCCTCTTTCTATAA,18,43.91164401230276,2.390537727283132,44.444444444444436,3,0.3333333333333333,R,S4,A0605,Ba,,102
50558,29_F,CGTGTACTTTTAACTAGATTA,29,21,42.78287467044589,3.519307069139998,28.57142857142857,4,0.19047619047619047,Ba_5_V3,F,29_R,GCCCTCCTCTTTCTATAA,18,43.91164401230276,2.390537727283132,44.444444444444436,3,0.3333333333333333,R,S2,A0330,Ba,,0
50559,29_F,CGTGTACTTTTAACTAGATTA,29,21,42.78287467044589,3.519307069139998,28.57142857142857,4,0.19047619047619047,Ba_5_V3,F,29_R,GCCCTCCTCTTTCTATAA,18,43.91164401230276,2.390537727283132,44.444444444444436,3,0.3333333333333333,R,S5,A0615,Ba,,0
50560,29_F,CGTGTACTTTTAACTAGATTA,29,21,42.78287467044589,3.519307069139998,28.57142857142857,4,0.19047619047619047,Ba_5_V3,F,29_R,GCCCTCCTCTTTCTATAA,18,43.91164401230276,2.390537727283132,44.444444444444436,3,0.3333333333333333,R,S6,A0706,Ba,,0
50601,29_F,CGTGTACTTTTAACTAGATTA,29,21,42.78287467044589,3.519307069139998,28.57142857142857,4,0.19047619047619047,Ba_5_V3,F,29_R,GCCCTCCTCTTTCTATAA,18,43.91164401230276,2.390537727283132,44.444444444444436,3,0.3333333333333333,R,S144,BA-BaBTSeqBa007P2--xx-xxx-xxxx-021-SF,Ba,,0
50465,29_F,CGTGTACTTTTAACTAGATTA,29,21,42.78287467044589,3.519307069139998,28.57142857142857,4,0.19047619047619047,Ba_4,F,29_R,GCCCTCCTCTTTCTATAA,18,43.91164401230276,2.390537727283132,44.444444444444436,3,0.3333333333333333,R,S4,A0605,Ba,,102
50466,29_F,CGTGTACTTTTAACTAGATTA,29,21,42.78287467044589,3.519307069139998,28.57142857142857,4,0.19047619047619047,Ba_4,F,29_R,GCCCTCCTCTTTCTATAA,18,43.91164401230276,2.390537727283132,44.444444444444436,3,0.3333333333333333,R,S2,A0330,Ba,,0
50467,29_F,CGTGTACTTTTAACTAGATTA,29,21,42.78287467044589,3.519307069139998,28.57142857142857,4,0.19047619047619047,Ba_4,F,29_R,GCCCTCCTCTTTCTATAA,18,43.91164401230276,2.390537727283132,44.444444444444436,3,0.3333333333333333,R,S5,A0615,Ba,,0
50468,29_F,CGTGTACTTTTAACTAGATTA,29,21,42.78287467044589,3.519307069139998,28.57142857142857,4,0.19047619047619047,Ba_4,F,29_R,GCCCTCCTCTTTCTATAA,18,43.91164401230276,2.390537727283132,44.444444444444436,3,0.3333333333333333,R,S6,A0706,Ba,,0
50509,29_F,CGTGTACTTTTAACTAGATTA,29,21,42.78287467044589,3.519307069139998,28.57142857142857,4,0.19047619047619047,Ba_4,F,29_R,GCCCTCCTCTTTCTATAA,18,43.91164401230276,2.390537727283132,44.444444444444436,3,0.3333333333333333,R,S144,BA-BaBTSeqBa007P2--xx-xxx-xxxx-021-SF,Ba,,0
33872,30_F,TTCCTAGTATTATTATTCATCGGC,30,24,48.289430019380525,1.0463663938649077,33.33333333333333,2,0.0,Ba_6_V4,F,30_R,TATTACAGGAGAGAAGTTGG,20,45.516336817116326,1.7267268083992846,40.0,2,0.0,R,S5,A0615,Ba,,0
33873,30_F,TTCCTAGTATTATTATTCATCGGC,30,24,48.289430019380525,1.0463663938649077,33.33333333333333,2,0.0,Ba_6_V4,F,30_R,TATTACAGGAGAGAAGTTGG,20,45.516336817116326,1.7267268083992846,40.0,2,0.0,R,S6,A0706,Ba,,0
33870,30_F,TTCCTAGTATTATTATTCATCGGC,30,24,48.289430019380525,1.0463663938649077,33.33333333333333,2,0.0,Ba_6_V4,F,30_R,TATTACAGGAGAGAAGTTGG,20,45.516336817116326,1.7267268083992846,40.0,2,0.0,R,S2,A0330,Ba,,0
33871,30_F,TTCCTAGTATTATTATTCATCGGC,30,24,48.289430019380525,1.0463663938649077,33.33333333333333,2,0.0,Ba_6_V4,F,30_R,TATTACAGGAGAGAAGTTGG,20,45.516336817116326,1.7267268083992846,40.0,2,0.0,R,S4,A0605,Ba,,111
33928,30_F,TTCCTAGTATTATTATTCATCGGC,30,24,48.289430019380525,1.0463663938649077,33.33333333333333,2,0.0,Ba_6_V4,F,30_R,TATTACAGGAGAGAAGTTGG,20,45.516336817116326,1.7267268083992846,40.0,2,0.0,R,S144,BA-BaBTSeqBa007P2--xx-xxx-xxxx-021-SF,Ba,,61
33767,30_F,TAAGATGTACGAATCCAC,30,18,42.688723576709606,3.613458162876285,38.888888888888886,2,0.0,Ba_5_V3,F,30_R,TTGGAAGACACTTAGTTTT,19,43.44722247349034,2.8549592660955483,31.578947368421048,4,0.21052631578947367,R,S5,A0615,Ba,,0
33765,30_F,TAAGATGTACGAATCCAC,30,18,42.688723576709606,3.613458162876285,38.888888888888886,2,0.0,Ba_5_V3,F,30_R,TTGGAAGACACTTAGTTTT,19,43.44722247349034,2.8549592660955483,31.578947368421048,4,0.21052631578947367,R,S2,A0330,Ba,,0
33766,30_F,TAAGATGTACGAATCCAC,30,18,42.688723576709606,3.613458162876285,38.888888888888886,2,0.0,Ba_5_V3,F,30_R,TTGGAAGACACTTAGTTTT,19,43.44722247349034,2.8549592660955483,31.578947368421048,4,0.21052631578947367,R,S4,A0605,Ba,,111
33768,30_F,TAAGATGTACGAATCCAC,30,18,42.688723576709606,3.613458162876285,38.888888888888886,2,0.0,Ba_5_V3,F,30_R,TTGGAAGACACTTAGTTTT,19,43.44722247349034,2.8549592660955483,31.578947368421048,4,0.21052631578947367,R,S6,A0706,Ba,,0
33823,30_F,TAAGATGTACGAATCCAC,30,18,42.688723576709606,3.613458162876285,38.888888888888886,2,0.0,Ba_5_V3,F,30_R,TTGGAAGACACTTAGTTTT,19,43.44722247349034,2.8549592660955483,31.578947368421048,4,0.21052631578947367,R,S144,BA-BaBTSeqBa007P2--xx-xxx-xxxx-021-SF,Ba,,61
34080,30_F,ATGAATGGCCTCCGAGCA,30,18,52.83925077294447,1.6730391182603557,55.555555555555564,2,0.0,Yp_1_V2,F,30_R,AATATTCTCACCAGTTACTCA,21,45.7397219043317,5.42648975035241,33.33333333333333,2,0.0,R,S2,A0330,Ba,,0
34081,30_F,ATGAATGGCCTCCGAGCA,30,18,52.83925077294447,1.6730391182603557,55.555555555555564,2,0.0,Yp_1_V2,F,30_R,AATATTCTCACCAGTTACTCA,21,45.7397219043317,5.42648975035241,33.33333333333333,2,0.0,R,S4,A0605,Ba,,111
34082,30_F,ATGAATGGCCTCCGAGCA,30,18,52.83925077294447,1.6730391182603557,55.555555555555564,2,0.0,Yp_1_V2,F,30_R,AATATTCTCACCAGTTACTCA,21,45.7397219043317,5.42648975035241,33.33333333333333,2,0.0,R,S5,A0615,Ba,,0
34083,30_F,ATGAATGGCCTCCGAGCA,30,18,52.83925077294447,1.6730391182603557,55.555555555555564,2,0.0,Yp_1_V2,F,30_R,AATATTCTCACCAGTTACTCA,21,45.7397219043317,5.42648975035241,33.33333333333333,2,0.0,R,S6,A0706,Ba,,0
34138,30_F,ATGAATGGCCTCCGAGCA,30,18,52.83925077294447,1.6730391182603557,55.555555555555564,2,0.0,Yp_1_V2,F,30_R,AATATTCTCACCAGTTACTCA,21,45.7397219043317,5.42648975035241,33.33333333333333,2,0.0,R,S144,BA-BaBTSeqBa007P2--xx-xxx-xxxx-021-SF,Ba,,61
33975,30_F,TTCCTAGTATTATTATTCATCGGC,30,24,48.289430019380525,1.0743063586379051,33.33333333333333,2,0.0,Ba_V45,F,30_R,TATTACAGGAGAGAAGTTGG,20,45.516336817116326,1.6987868436262872,40.0,2,0.0,R,S2,A0330,Ba,,0
33976,30_F,TTCCTAGTATTATTATTCATCGGC,30,24,48.289430019380525,1.0743063586379051,33.33333333333333,2,0.0,Ba_V45,F,30_R,TATTACAGGAGAGAAGTTGG,20,45.516336817116326,1.6987868436262872,40.0,2,0.0,R,S4,A0605,Ba,,111
33977,30_F,TTCCTAGTATTATTATTCATCGGC,30,24,48.289430019380525,1.0743063586379051,33.33333333333333,2,0.0,Ba_V45,F,30_R,TATTACAGGAGAGAAGTTGG,20,45.516336817116326,1.6987868436262872,40.0,2,0.0,R,S5,A0615,Ba,,0
33978,30_F,TTCCTAGTATTATTATTCATCGGC,30,24,48.289430019380525,1.0743063586379051,33.33333333333333,2,0.0,Ba_V45,F,30_R,TATTACAGGAGAGAAGTTGG,20,45.516336817116326,1.6987868436262872,40.0,2,0.0,R,S6,A0706,Ba,,0
34033,30_F,TTCCTAGTATTATTATTCATCGGC,30,24,48.289430019380525,1.0743063586379051,33.33333333333333,2,0.0,Ba_V45,F,30_R,TATTACAGGAGAGAAGTTGG,20,45.516336817116326,1.6987868436262872,40.0,2,0.0,R,S144,BA-BaBTSeqBa007P2--xx-xxx-xxxx-021-SF,Ba,,61
33450,30_F,TAAGATGTACGAATCCAC,30,18,42.688723576709606,2.1475845490473944,38.888888888888886,2,0.0,Ba_2,F,30_R,TTGGAAGACACTTAGTTTT,19,43.44722247349034,1.389085652266658,31.578947368421048,4,0.21052631578947367,R,S2,A0330,Ba,,0
33451,30_F,TAAGATGTACGAATCCAC,30,18,42.688723576709606,2.1475845490473944,38.888888888888886,2,0.0,Ba_2,F,30_R,TTGGAAGACACTTAGTTTT,19,43.44722247349034,1.389085652266658,31.578947368421048,4,0.21052631578947367,R,S4,A0605,Ba,,111
33452,30_F,TAAGATGTACGAATCCAC,30,18,42.688723576709606,2.1475845490473944,38.888888888888886,2,0.0,Ba_2,F,30_R,TTGGAAGACACTTAGTTTT,19,43.44722247349034,1.389085652266658,31.578947368421048,4,0.21052631578947367,R,S5,A0615,Ba,,0
33453,30_F,TAAGATGTACGAATCCAC,30,18,42.688723576709606,2.1475845490473944,38.888888888888886,2,0.0,Ba_2,F,30_R,TTGGAAGACACTTAGTTTT,19,43.44722247349034,1.389085652266658,31.578947368421048,4,0.21052631578947367,R,S6,A0706,Ba,,0
33508,30_F,TAAGATGTACGAATCCAC,30,18,42.688723576709606,2.1475845490473944,38.888888888888886,2,0.0,Ba_2,F,30_R,TTGGAAGACACTTAGTTTT,19,43.44722247349034,1.389085652266658,31.578947368421048,4,0.21052631578947367,R,S144,BA-BaBTSeqBa007P2--xx-xxx-xxxx-021-SF,Ba,,61
33345,30_F,TAAGATGTACGAATCCAC,30,18,42.688723576709606,2.1475845490473944,38.888888888888886,2,0.0,Ba_1,F,30_R,TTGGAAGACACTTAGTTTT,19,43.44722247349034,1.389085652266658,31.578947368421048,4,0.21052631578947367,R,S2,A0330,Ba,,0
33346,30_F,TAAGATGTACGAATCCAC,30,18,42.688723576709606,2.1475845490473944,38.888888888888886,2,0.0,Ba_1,F,30_R,TTGGAAGACACTTAGTTTT,19,43.44722247349034,1.389085652266658,31.578947368421048,4,0.21052631578947367,R,S4,A0605,Ba,,111
33347,30_F,TAAGATGTACGAATCCAC,30,18,42.688723576709606,2.1475845490473944,38.888888888888886,2,0.0,Ba_1,F,30_R,TTGGAAGACACTTAGTTTT,19,43.44722247349034,1.389085652266658,31.578947368421048,4,0.21052631578947367,R,S5,A0615,Ba,,0
33348,30_F,TAAGATGTACGAATCCAC,30,18,42.688723576709606,2.1475845490473944,38.888888888888886,2,0.0,Ba_1,F,30_R,TTGGAAGACACTTAGTTTT,19,43.44722247349034,1.389085652266658,31.578947368421048,4,0.21052631578947367,R,S6,A0706,Ba,,0
33403,30_F,TAAGATGTACGAATCCAC,30,18,42.688723576709606,2.1475845490473944,38.888888888888886,2,0.0,Ba_1,F,30_R,TTGGAAGACACTTAGTTTT,19,43.44722247349034,1.389085652266658,31.578947368421048,4,0.21052631578947367,R,S144,BA-BaBTSeqBa007P2--xx-xxx-xxxx-021-SF,Ba,,61
33660,30_F,TAAGATGTACGAATCCAC,30,18,42.688723576709606,3.613458162876285,38.888888888888886,2,0.0,Ba_4,F,30_R,TTGGAAGACACTTAGTTTT,19,43.44722247349034,2.8549592660955483,31.578947368421048,4,0.21052631578947367,R,S2,A0330,Ba,,0
33661,30_F,TAAGATGTACGAATCCAC,30,18,42.688723576709606,3.613458162876285,38.888888888888886,2,0.0,Ba_4,F,30_R,TTGGAAGACACTTAGTTTT,19,43.44722247349034,2.8549592660955483,31.578947368421048,4,0.21052631578947367,R,S4,A0605,Ba,,111
33662,30_F,TAAGATGTACGAATCCAC,30,18,42.688723576709606,3.613458162876285,38.888888888888886,2,0.0,Ba_4,F,30_R,TTGGAAGACACTTAGTTTT,19,43.44722247349034,2.8549592660955483,31.578947368421048,4,0.21052631578947367,R,S5,A0615,Ba,,0
33663,30_F,TAAGATGTACGAATCCAC,30,18,42.688723576709606,3.613458162876285,38.888888888888886,2,0.0,Ba_4,F,30_R,TTGGAAGACACTTAGTTTT,19,43.44722247349034,2.8549592660955483,31.578947368421048,4,0.21052631578947367,R,S6,A0706,Ba,,0
33718,30_F,TAAGATGTACGAATCCAC,30,18,42.688723576709606,3.613458162876285,38.888888888888886,2,0.0,Ba_4,F,30_R,TTGGAAGACACTTAGTTTT,19,43.44722247349034,2.8549592660955483,31.578947368421048,4,0.21052631578947367,R,S144,BA-BaBTSeqBa007P2--xx-xxx-xxxx-021-SF,Ba,,61
33555,30_F,TAAGATGTACGAATCCAC,30,18,42.688723576709606,2.1475845490473944,38.888888888888886,2,0.0,Ba_3,F,30_R,TTGGAAGACACTTAGTTTT,19,43.44722247349034,1.389085652266658,31.578947368421048,4,0.21052631578947367,R,S2,A0330,Ba,,0
33556,30_F,TAAGATGTACGAATCCAC,30,18,42.688723576709606,2.1475845490473944,38.888888888888886,2,0.0,Ba_3,F,30_R,TTGGAAGACACTTAGTTTT,19,43.44722247349034,1.389085652266658,31.578947368421048,4,0.21052631578947367,R,S4,A0605,Ba,,111
33557,30_F,TAAGATGTACGAATCCAC,30,18,42.688723576709606,2.1475845490473944,38.888888888888886,2,0.0,Ba_3,F,30_R,TTGGAAGACACTTAGTTTT,19,43.44722247349034,1.389085652266658,31.578947368421048,4,0.21052631578947367,R,S5,A0615,Ba,,0
33558,30_F,TAAGATGTACGAATCCAC,30,18,42.688723576709606,2.1475845490473944,38.888888888888886,2,0.0,Ba_3,F,30_R,TTGGAAGACACTTAGTTTT,19,43.44722247349034,1.389085652266658,31.578947368421048,4,0.21052631578947367,R,S6,A0706,Ba,,0
33613,30_F,TAAGATGTACGAATCCAC,30,18,42.688723576709606,2.1475845490473944,38.888888888888886,2,0.0,Ba_3,F,30_R,TTGGAAGACACTTAGTTTT,19,43.44722247349034,1.389085652266658,31.578947368421048,4,0.21052631578947367,R,S144,BA-BaBTSeqBa007P2--xx-xxx-xxxx-021-SF,Ba,,61
34290,30_F,CAGTTGTGCCCATTGTCC,30,18,50.64428185723426,1.3529483632501282,55.555555555555564,3,0.16666666666666666,Yp_2,F,30_R,CGCCTGCTGACGCAATTCTT,20,56.220059418884325,4.222829198399928,55.00000000000001,2,0.0,R,S2,A0330,Ba,,0
34291,30_F,CAGTTGTGCCCATTGTCC,30,18,50.64428185723426,1.3529483632501282,55.555555555555564,3,0.16666666666666666,Yp_2,F,30_R,CGCCTGCTGACGCAATTCTT,20,56.220059418884325,4.222829198399928,55.00000000000001,2,0.0,R,S4,A0605,Ba,,111
34292,30_F,CAGTTGTGCCCATTGTCC,30,18,50.64428185723426,1.3529483632501282,55.555555555555564,3,0.16666666666666666,Yp_2,F,30_R,CGCCTGCTGACGCAATTCTT,20,56.220059418884325,4.222829198399928,55.00000000000001,2,0.0,R,S5,A0615,Ba,,0
34293,30_F,CAGTTGTGCCCATTGTCC,30,18,50.64428185723426,1.3529483632501282,55.555555555555564,3,0.16666666666666666,Yp_2,F,30_R,CGCCTGCTGACGCAATTCTT,20,56.220059418884325,4.222829198399928,55.00000000000001,2,0.0,R,S6,A0706,Ba,,0