,Primer_Name_L,Seq_L,Amplicon,Primer_Length_L,Tm_L,Delta Tm_L,GC_Content_L,Length_Longest_Homopolymer_L,Percent_Homopolymer_L,exp,flank_L,Primer_Name_R,Seq_R,Primer_Length_R,Tm_R,Delta Tm_R,GC_Content_R,Length_Longest_Homopolymer_R,Percent_Homopolymer_R,flank_R,sample_id,sample_name,species,strain,n_reads
60018,6_F,TATCCTATATCCTGTTGTAGAA,6,22,44.690423607336704,4.165867992887321,31.818181818181817,2,0.0,Ft_1,F,6_R,CATTATCGTGAGCTCCTT,18,45.73126196505467,3.1250296351693483,44.444444444444436,2,0.0,R,S6,A0706,Ba,,0
60019,6_F,TATCCTATATCCTGTTGTAGAA,6,22,44.690423607336704,4.165867992887321,31.818181818181817,2,0.0,Ft_1,F,6_R,CATTATCGTGAGCTCCTT,18,45.73126196505467,3.1250296351693483,44.444444444444436,2,0.0,R,S5,A0615,Ba,,0
60020,6_F,TATCCTATATCCTGTTGTAGAA,6,22,44.690423607336704,4.165867992887321,31.818181818181817,2,0.0,Ft_1,F,6_R,CATTATCGTGAGCTCCTT,18,45.73126196505467,3.1250296351693483,44.444444444444436,2,0.0,R,S2,A0330,Ba,,0
60021,6_F,TATCCTATATCCTGTTGTAGAA,6,22,44.690423607336704,4.165867992887321,31.818181818181817,2,0.0,Ft_1,F,6_R,CATTATCGTGAGCTCCTT,18,45.73126196505467,3.1250296351693483,44.444444444444436,2,0.0,R,S4,A0605,Ba,,20
60332,6_F,ATATCCTATATCCTGTTGTAGAA,6,23,45.38956385285366,4.883211986556353,30.434782608695656,2,0.0,Ft_2,F,6_R,TTATGCATTATCGTGAGC,18,44.35071735591589,5.922058483494119,38.888888888888886,2,0.0,R,S6,A0706,Ba,,0
60333,6_F,ATATCCTATATCCTGTTGTAGAA,6,23,45.38956385285366,4.883211986556353,30.434782608695656,2,0.0,Ft_2,F,6_R,TTATGCATTATCGTGAGC,18,44.35071735591589,5.922058483494119,38.888888888888886,2,0.0,R,S5,A0615,Ba,,0
60334,6_F,ATATCCTATATCCTGTTGTAGAA,6,23,45.38956385285366,4.883211986556353,30.434782608695656,2,0.0,Ft_2,F,6_R,TTATGCATTATCGTGAGC,18,44.35071735591589,5.922058483494119,38.888888888888886,2,0.0,R,S2,A0330,Ba,,0
60335,6_F,ATATCCTATATCCTGTTGTAGAA,6,23,45.38956385285366,4.883211986556353,30.434782608695656,2,0.0,Ft_2,F,6_R,TTATGCATTATCGTGAGC,18,44.35071735591589,5.922058483494119,38.888888888888886,2,0.0,R,S4,A0605,Ba,,20
60410,6_F,ATATCCTATATCCTGTTGTAGAA,6,23,45.38956385285366,4.883211986556353,30.434782608695656,2,0.0,Ft_2,F,6_R,TTATGCATTATCGTGAGC,18,44.35071735591589,5.922058483494119,38.888888888888886,2,0.0,R,S144,BA-BaBTSeqBa007P2--xx-xxx-xxxx-021-SF,Ba,,3
60175,6_F,ATATCCTATATCCTGTTGTAGAA,6,23,45.38956385285366,4.667623990960237,30.434782608695656,2,0.0,Ft_2_V2,F,6_R,TTATGCATTATCGTGAGC,18,44.35071735591589,5.706470487898003,38.888888888888886,2,0.0,R,S6,A0706,Ba,,0
60176,6_F,ATATCCTATATCCTGTTGTAGAA,6,23,45.38956385285366,4.667623990960237,30.434782608695656,2,0.0,Ft_2_V2,F,6_R,TTATGCATTATCGTGAGC,18,44.35071735591589,5.706470487898003,38.888888888888886,2,0.0,R,S5,A0615,Ba,,0
60178,6_F,ATATCCTATATCCTGTTGTAGAA,6,23,45.38956385285366,4.667623990960237,30.434782608695656,2,0.0,Ft_2_V2,F,6_R,TTATGCATTATCGTGAGC,18,44.35071735591589,5.706470487898003,38.888888888888886,2,0.0,R,S4,A0605,Ba,,20
60177,6_F,ATATCCTATATCCTGTTGTAGAA,6,23,45.38956385285366,4.667623990960237,30.434782608695656,2,0.0,Ft_2_V2,F,6_R,TTATGCATTATCGTGAGC,18,44.35071735591589,5.706470487898003,38.888888888888886,2,0.0,R,S2,A0330,Ba,,0
60253,6_F,ATATCCTATATCCTGTTGTAGAA,6,23,45.38956385285366,4.667623990960237,30.434782608695656,2,0.0,Ft_2_V2,F,6_R,TTATGCATTATCGTGAGC,18,44.35071735591589,5.706470487898003,38.888888888888886,2,0.0,R,S144,BA-BaBTSeqBa007P2--xx-xxx-xxxx-021-SF,Ba,,3
59861,6_F,ACTGAAGATGAGAAAGTGGTA,6,21,48.0462179980945,0.8310943373518924,38.095238095238095,3,0.14285714285714285,Ba_V45,F,6_R,TAACGCTTCTCCGTAAT,17,44.05768133674019,3.1574423240024245,41.17647058823529,2,0.0,R,S6,A0706,Ba,,0
59862,6_F,ACTGAAGATGAGAAAGTGGTA,6,21,48.0462179980945,0.8310943373518924,38.095238095238095,3,0.14285714285714285,Ba_V45,F,6_R,TAACGCTTCTCCGTAAT,17,44.05768133674019,3.1574423240024245,41.17647058823529,2,0.0,R,S5,A0615,Ba,,0
59863,6_F,ACTGAAGATGAGAAAGTGGTA,6,21,48.0462179980945,0.8310943373518924,38.095238095238095,3,0.14285714285714285,Ba_V45,F,6_R,TAACGCTTCTCCGTAAT,17,44.05768133674019,3.1574423240024245,41.17647058823529,2,0.0,R,S2,A0330,Ba,,0
59864,6_F,ACTGAAGATGAGAAAGTGGTA,6,21,48.0462179980945,0.8310943373518924,38.095238095238095,3,0.14285714285714285,Ba_V45,F,6_R,TAACGCTTCTCCGTAAT,17,44.05768133674019,3.1574423240024245,41.17647058823529,2,0.0,R,S4,A0605,Ba,,20
62872,7_F,TATACTCGCATCGTTACT,7,18,44.0883043311116,6.626780275691188,38.888888888888886,2,0.0,Ba_OkX,F,7_R,ACTGCAAAGATTAAGCCGG,19,50.19642440514451,0.5186602016582782,47.368421052631575,3,0.15789473684210525,R,S2,A0330,Ba,,0
62871,7_F,TATACTCGCATCGTTACT,7,18,44.0883043311116,6.626780275691188,38.888888888888886,2,0.0,Ba_OkX,F,7_R,ACTGCAAAGATTAAGCCGG,19,50.19642440514451,0.5186602016582782,47.368421052631575,3,0.15789473684210525,R,S5,A0615,Ba,,0
62870,7_F,TATACTCGCATCGTTACT,7,18,44.0883043311116,6.626780275691188,38.888888888888886,2,0.0,Ba_OkX,F,7_R,ACTGCAAAGATTAAGCCGG,19,50.19642440514451,0.5186602016582782,47.368421052631575,3,0.15789473684210525,R,S4,A0605,Ba,,6
62681,7_F,CCTCTCCTTATACTCGCATCGTTACT,7,26,55.77419421143492,4.20178039289717,46.153846153846146,2,0.0,Ba_LowSH,F,7_R,AAGCCGGATGCTTATGCT,18,50.90675089448956,0.6656629240481848,50.0,2,0.0,R,S2,A0330,Ba,,0
62680,7_F,CCTCTCCTTATACTCGCATCGTTACT,7,26,55.77419421143492,4.20178039289717,46.153846153846146,2,0.0,Ba_LowSH,F,7_R,AAGCCGGATGCTTATGCT,18,50.90675089448956,0.6656629240481848,50.0,2,0.0,R,S5,A0615,Ba,,0
62679,7_F,CCTCTCCTTATACTCGCATCGTTACT,7,26,55.77419421143492,4.20178039289717,46.153846153846146,2,0.0,Ba_LowSH,F,7_R,AAGCCGGATGCTTATGCT,18,50.90675089448956,0.6656629240481848,50.0,2,0.0,R,S4,A0605,Ba,,6
62740,7_F,CCTCTCCTTATACTCGCATCGTTACT,7,26,55.77419421143492,4.20178039289717,46.153846153846146,2,0.0,Ba_LowSH,F,7_R,AAGCCGGATGCTTATGCT,18,50.90675089448956,0.6656629240481848,50.0,2,0.0,R,S144,BA-BaBTSeqBa007P2--xx-xxx-xxxx-021-SF,Ba,,433
63061,7_F,CTCCTTATACTCGCATCGTT,7,20,49.12471030131679,1.9095866405741688,45.0,2,0.0,Ba_V45,F,7_R,GGATGCTTATGCTGCGT,17,49.33869731954115,2.123573658798541,52.941176470588246,2,0.0,R,S4,A0605,Ba,,6
63062,7_F,CTCCTTATACTCGCATCGTT,7,20,49.12471030131679,1.9095866405741688,45.0,2,0.0,Ba_V45,F,7_R,GGATGCTTATGCTGCGT,17,49.33869731954115,2.123573658798541,52.941176470588246,2,0.0,R,S5,A0615,Ba,,0
63063,7_F,CTCCTTATACTCGCATCGTT,7,20,49.12471030131679,1.9095866405741688,45.0,2,0.0,Ba_V45,F,7_R,GGATGCTTATGCTGCGT,17,49.33869731954115,2.123573658798541,52.941176470588246,2,0.0,R,S2,A0330,Ba,,0
62931,7_F,TATACTCGCATCGTTACT,7,18,44.0883043311116,6.626780275691188,38.888888888888886,2,0.0,Ba_OkX,F,7_R,ACTGCAAAGATTAAGCCGG,19,50.19642440514451,0.5186602016582782,47.368421052631575,3,0.15789473684210525,R,S144,BA-BaBTSeqBa007P2--xx-xxx-xxxx-021-SF,Ba,,433
63252,7_F,TGCCTAACTTCAAATCTAATG,7,21,45.79171592760645,3.064575672617572,33.33333333333333,3,0.14285714285714285,Ft_1,F,7_R,AGGACTTGCGCATAATACATA,21,49.07885986784487,0.2225682676208507,38.095238095238095,2,0.0,R,S4,A0605,Ba,,6
63254,7_F,TGCCTAACTTCAAATCTAATG,7,21,45.79171592760645,3.064575672617572,33.33333333333333,3,0.14285714285714285,Ft_1,F,7_R,AGGACTTGCGCATAATACATA,21,49.07885986784487,0.2225682676208507,38.095238095238095,2,0.0,R,S2,A0330,Ba,,0
63253,7_F,TGCCTAACTTCAAATCTAATG,7,21,45.79171592760645,3.064575672617572,33.33333333333333,3,0.14285714285714285,Ft_1,F,7_R,AGGACTTGCGCATAATACATA,21,49.07885986784487,0.2225682676208507,38.095238095238095,2,0.0,R,S5,A0615,Ba,,0
63313,7_F,TGCCTAACTTCAAATCTAATG,7,21,45.79171592760645,3.064575672617572,33.33333333333333,3,0.14285714285714285,Ft_1,F,7_R,AGGACTTGCGCATAATACATA,21,49.07885986784487,0.2225682676208507,38.095238095238095,2,0.0,R,S144,BA-BaBTSeqBa007P2--xx-xxx-xxxx-021-SF,Ba,,433
63122,7_F,CTCCTTATACTCGCATCGTT,7,20,49.12471030131679,1.9095866405741688,45.0,2,0.0,Ba_V45,F,7_R,GGATGCTTATGCTGCGT,17,49.33869731954115,2.123573658798541,52.941176470588246,2,0.0,R,S144,BA-BaBTSeqBa007P2--xx-xxx-xxxx-021-SF,Ba,,433
61212,7_F,CGCATCGTTACTCCTATTA,7,19,46.085946264242686,1.2496381384856932,42.105263157894726,2,0.0,Ba_2,F,7_R,ATGATGGTTTAACAAAAGA,19,41.60027398451757,3.2360341412394287,26.315789473684212,4,0.3684210526315789,R,S144,BA-BaBTSeqBa007P2--xx-xxx-xxxx-021-SF,Ba,,433
61152,7_F,CGCATCGTTACTCCTATTA,7,19,46.085946264242686,1.2496381384856932,42.105263157894726,2,0.0,Ba_2,F,7_R,ATGATGGTTTAACAAAAGA,19,41.60027398451757,3.2360341412394287,26.315789473684212,4,0.3684210526315789,R,S5,A0615,Ba,,0
61153,7_F,CGCATCGTTACTCCTATTA,7,19,46.085946264242686,1.2496381384856932,42.105263157894726,2,0.0,Ba_2,F,7_R,ATGATGGTTTAACAAAAGA,19,41.60027398451757,3.2360341412394287,26.315789473684212,4,0.3684210526315789,R,S2,A0330,Ba,,0
61151,7_F,CGCATCGTTACTCCTATTA,7,19,46.085946264242686,1.2496381384856932,42.105263157894726,2,0.0,Ba_2,F,7_R,ATGATGGTTTAACAAAAGA,19,41.60027398451757,3.2360341412394287,26.315789473684212,4,0.3684210526315789,R,S4,A0605,Ba,,6
61403,7_F,CGCATCGTTACTCCTATTA,7,19,46.085946264242686,1.2496381384856932,42.105263157894726,2,0.0,Ba_3,F,7_R,ATGATGGTTTAACAAAAGA,19,41.60027398451757,3.2360341412394287,26.315789473684212,4,0.3684210526315789,R,S144,BA-BaBTSeqBa007P2--xx-xxx-xxxx-021-SF,Ba,,433
61342,7_F,CGCATCGTTACTCCTATTA,7,19,46.085946264242686,1.2496381384856932,42.105263157894726,2,0.0,Ba_3,F,7_R,ATGATGGTTTAACAAAAGA,19,41.60027398451757,3.2360341412394287,26.315789473684212,4,0.3684210526315789,R,S4,A0605,Ba,,6
61343,7_F,CGCATCGTTACTCCTATTA,7,19,46.085946264242686,1.2496381384856932,42.105263157894726,2,0.0,Ba_3,F,7_R,ATGATGGTTTAACAAAAGA,19,41.60027398451757,3.2360341412394287,26.315789473684212,4,0.3684210526315789,R,S5,A0615,Ba,,0
61344,7_F,CGCATCGTTACTCCTATTA,7,19,46.085946264242686,1.2496381384856932,42.105263157894726,2,0.0,Ba_3,F,7_R,ATGATGGTTTAACAAAAGA,19,41.60027398451757,3.2360341412394287,26.315789473684212,4,0.3684210526315789,R,S2,A0330,Ba,,0
62488,7_F,CCTCTCCTTATACTCGCATCGTTACT,7,26,55.77419421143492,4.251748103291064,46.153846153846146,2,0.0,Ba_HighSpec,F,7_R,AAGCCGGATGCTTATGCT,18,50.90675089448956,0.6156952136542913,50.0,2,0.0,R,S4,A0605,Ba,,6
62490,7_F,CCTCTCCTTATACTCGCATCGTTACT,7,26,55.77419421143492,4.251748103291064,46.153846153846146,2,0.0,Ba_HighSpec,F,7_R,AAGCCGGATGCTTATGCT,18,50.90675089448956,0.6156952136542913,50.0,2,0.0,R,S2,A0330,Ba,,0
62549,7_F,CCTCTCCTTATACTCGCATCGTTACT,7,26,55.77419421143492,4.251748103291064,46.153846153846146,2,0.0,Ba_HighSpec,F,7_R,AAGCCGGATGCTTATGCT,18,50.90675089448956,0.6156952136542913,50.0,2,0.0,R,S144,BA-BaBTSeqBa007P2--xx-xxx-xxxx-021-SF,Ba,,433
62489,7_F,CCTCTCCTTATACTCGCATCGTTACT,7,26,55.77419421143492,4.251748103291064,46.153846153846146,2,0.0,Ba_HighSpec,F,7_R,AAGCCGGATGCTTATGCT,18,50.90675089448956,0.6156952136542913,50.0,2,0.0,R,S5,A0615,Ba,,0
61021,7_F,CGCATCGTTACTCCTATTA,7,19,46.085946264242686,1.2496381384856932,42.105263157894726,2,0.0,Ba_1,F,7_R,ATGATGGTTTAACAAAAGA,19,41.60027398451757,3.2360341412394287,26.315789473684212,4,0.3684210526315789,R,S144,BA-BaBTSeqBa007P2--xx-xxx-xxxx-021-SF,Ba,,433
62358,7_F,CCTCTCCTTATACTCGCATCGTTACT,7,26,55.77419421143492,3.4096369022955884,46.153846153846146,2,0.0,Ba_HighSH,F,7_R,AAGCCGGATGCTTATGCT,18,50.90675089448956,1.457806414649767,50.0,2,0.0,R,S144,BA-BaBTSeqBa007P2--xx-xxx-xxxx-021-SF,Ba,,433
62299,7_F,CCTCTCCTTATACTCGCATCGTTACT,7,26,55.77419421143492,3.4096369022955884,46.153846153846146,2,0.0,Ba_HighSH,F,7_R,AAGCCGGATGCTTATGCT,18,50.90675089448956,1.457806414649767,50.0,2,0.0,R,S2,A0330,Ba,,0
62298,7_F,CCTCTCCTTATACTCGCATCGTTACT,7,26,55.77419421143492,3.4096369022955884,46.153846153846146,2,0.0,Ba_HighSH,F,7_R,AAGCCGGATGCTTATGCT,18,50.90675089448956,1.457806414649767,50.0,2,0.0,R,S5,A0615,Ba,,0
62297,7_F,CCTCTCCTTATACTCGCATCGTTACT,7,26,55.77419421143492,3.4096369022955884,46.153846153846146,2,0.0,Ba_HighSH,F,7_R,AAGCCGGATGCTTATGCT,18,50.90675089448956,1.457806414649767,50.0,2,0.0,R,S4,A0605,Ba,,6
60960,7_F,CGCATCGTTACTCCTATTA,7,19,46.085946264242686,1.2496381384856932,42.105263157894726,2,0.0,Ba_1,F,7_R,ATGATGGTTTAACAAAAGA,19,41.60027398451757,3.2360341412394287,26.315789473684212,4,0.3684210526315789,R,S4,A0605,Ba,,6
60961,7_F,CGCATCGTTACTCCTATTA,7,19,46.085946264242686,1.2496381384856932,42.105263157894726,2,0.0,Ba_1,F,7_R,ATGATGGTTTAACAAAAGA,19,41.60027398451757,3.2360341412394287,26.315789473684212,4,0.3684210526315789,R,S5,A0615,Ba,,0
60962,7_F,CGCATCGTTACTCCTATTA,7,19,46.085946264242686,1.2496381384856932,42.105263157894726,2,0.0,Ba_1,F,7_R,ATGATGGTTTAACAAAAGA,19,41.60027398451757,3.2360341412394287,26.315789473684212,4,0.3684210526315789,R,S2,A0330,Ba,,0
64016,7_F,CTGCTGGTGGCGATCTTCA,7,19,54.33249051904141,2.9076007663987298,57.894736842105274,2,0.0,Yp_1,F,7_R,ATGAAGATGCGAGCAAGTT,19,49.47193286197654,1.952956890666144,42.105263157894726,2,0.0,R,S4,A0605,Ba,,6
64017,7_F,CTGCTGGTGGCGATCTTCA,7,19,54.33249051904141,2.9076007663987298,57.894736842105274,2,0.0,Yp_1,F,7_R,ATGAAGATGCGAGCAAGTT,19,49.47193286197654,1.952956890666144,42.105263157894726,2,0.0,R,S5,A0615,Ba,,0
64018,7_F,CTGCTGGTGGCGATCTTCA,7,19,54.33249051904141,2.9076007663987298,57.894736842105274,2,0.0,Yp_1,F,7_R,ATGAAGATGCGAGCAAGTT,19,49.47193286197654,1.952956890666144,42.105263157894726,2,0.0,R,S2,A0330,Ba,,0
64077,7_F,CTGCTGGTGGCGATCTTCA,7,19,54.33249051904141,2.9076007663987298,57.894736842105274,2,0.0,Yp_1,F,7_R,ATGAAGATGCGAGCAAGTT,19,49.47193286197654,1.952956890666144,42.105263157894726,2,0.0,R,S144,BA-BaBTSeqBa007P2--xx-xxx-xxxx-021-SF,Ba,,433
63886,7_F,CTGCTGGTGGCGATCTTCA,7,19,54.33249051904141,3.1662788643573023,57.894736842105274,2,0.0,Yp_1_V2,F,7_R,ATGAAGATGCGAGCAAGTT,19,49.47193286197654,1.694278792707571,42.105263157894726,2,0.0,R,S144,BA-BaBTSeqBa007P2--xx-xxx-xxxx-021-SF,Ba,,433
64207,7_F,TCTTGGATAGGTTCTAATCC,7,20,45.18588775692696,6.811342463557445,40.0,2,0.0,Yp_2,F,7_R,AGGTGCTGGCTGACTGTAC,19,53.53277751900362,1.5355472985192264,57.894736842105274,2,0.0,R,S4,A0605,Ba,,6
64208,7_F,TCTTGGATAGGTTCTAATCC,7,20,45.18588775692696,6.811342463557445,40.0,2,0.0,Yp_2,F,7_R,AGGTGCTGGCTGACTGTAC,19,53.53277751900362,1.5355472985192264,57.894736842105274,2,0.0,R,S5,A0615,Ba,,0
64209,7_F,TCTTGGATAGGTTCTAATCC,7,20,45.18588775692696,6.811342463557445,40.0,2,0.0,Yp_2,F,7_R,AGGTGCTGGCTGACTGTAC,19,53.53277751900362,1.5355472985192264,57.894736842105274,2,0.0,R,S2,A0330,Ba,,0
64268,7_F,TCTTGGATAGGTTCTAATCC,7,20,45.18588775692696,6.811342463557445,40.0,2,0.0,Yp_2,F,7_R,AGGTGCTGGCTGACTGTAC,19,53.53277751900362,1.5355472985192264,57.894736842105274,2,0.0,R,S144,BA-BaBTSeqBa007P2--xx-xxx-xxxx-021-SF,Ba,,433
63634,7_F,ATTGAGGTGAGTATTGAAGAA,7,21,46.30980048193493,3.9629753574750812,33.33333333333333,2,0.0,Ft_2,F,7_R,GATCTGATATGTTGCTTGGTGAGCC,25,56.07611054944529,5.803334710035267,48.0,2,0.0,R,S4,A0605,Ba,,6
63635,7_F,ATTGAGGTGAGTATTGAAGAA,7,21,46.30980048193493,3.9629753574750812,33.33333333333333,2,0.0,Ft_2,F,7_R,GATCTGATATGTTGCTTGGTGAGCC,25,56.07611054944529,5.803334710035267,48.0,2,0.0,R,S5,A0615,Ba,,0
63636,7_F,ATTGAGGTGAGTATTGAAGAA,7,21,46.30980048193493,3.9629753574750812,33.33333333333333,2,0.0,Ft_2,F,7_R,GATCTGATATGTTGCTTGGTGAGCC,25,56.07611054944529,5.803334710035267,48.0,2,0.0,R,S2,A0330,Ba,,0
63444,7_F,ATTGAGGTGAGTATTGAAGAA,7,21,46.30980048193493,3.747387361878964,33.33333333333333,2,0.0,Ft_2_V2,F,7_R,GATCTGATATGTTGCTTGGTGAGCC,25,56.07611054944529,6.018922705631383,48.0,2,0.0,R,S5,A0615,Ba,,0
63445,7_F,ATTGAGGTGAGTATTGAAGAA,7,21,46.30980048193493,3.747387361878964,33.33333333333333,2,0.0,Ft_2_V2,F,7_R,GATCTGATATGTTGCTTGGTGAGCC,25,56.07611054944529,6.018922705631383,48.0,2,0.0,R,S2,A0330,Ba,,0
63443,7_F,ATTGAGGTGAGTATTGAAGAA,7,21,46.30980048193493,3.747387361878964,33.33333333333333,2,0.0,Ft_2_V2,F,7_R,GATCTGATATGTTGCTTGGTGAGCC,25,56.07611054944529,6.018922705631383,48.0,2,0.0,R,S4,A0605,Ba,,6
63504,7_F,ATTGAGGTGAGTATTGAAGAA,7,21,46.30980048193493,3.747387361878964,33.33333333333333,2,0.0,Ft_2_V2,F,7_R,GATCTGATATGTTGCTTGGTGAGCC,25,56.07611054944529,6.018922705631383,48.0,2,0.0,R,S144,BA-BaBTSeqBa007P2--xx-xxx-xxxx-021-SF,Ba,,433
63825,7_F,CTGCTGGTGGCGATCTTCA,7,19,54.33249051904141,3.1662788643573023,57.894736842105274,2,0.0,Yp_1_V2,F,7_R,ATGAAGATGCGAGCAAGTT,19,49.47193286197654,1.694278792707571,42.105263157894726,2,0.0,R,S4,A0605,Ba,,6
63826,7_F,CTGCTGGTGGCGATCTTCA,7,19,54.33249051904141,3.1662788643573023,57.894736842105274,2,0.0,Yp_1_V2,F,7_R,ATGAAGATGCGAGCAAGTT,19,49.47193286197654,1.694278792707571,42.105263157894726,2,0.0,R,S5,A0615,Ba,,0
63827,7_F,CTGCTGGTGGCGATCTTCA,7,19,54.33249051904141,3.1662788643573023,57.894736842105274,2,0.0,Yp_1_V2,F,7_R,ATGAAGATGCGAGCAAGTT,19,49.47193286197654,1.694278792707571,42.105263157894726,2,0.0,R,S2,A0330,Ba,,0
63695,7_F,ATTGAGGTGAGTATTGAAGAA,7,21,46.30980048193493,3.9629753574750812,33.33333333333333,2,0.0,Ft_2,F,7_R,GATCTGATATGTTGCTTGGTGAGCC,25,56.07611054944529,5.803334710035267,48.0,2,0.0,R,S144,BA-BaBTSeqBa007P2--xx-xxx-xxxx-021-SF,Ba,,433
61976,7_F,CTCCTTATACTCGCATCGTT,7,20,49.12471030131679,2.8225285617308917,45.0,2,0.0,Ba_5_V3,F,7_R,GGATGCTTATGCTGCGT,17,49.33869731954115,3.036515579955264,52.941176470588246,2,0.0,R,S144,BA-BaBTSeqBa007P2--xx-xxx-xxxx-021-SF,Ba,,433
61915,7_F,CTCCTTATACTCGCATCGTT,7,20,49.12471030131679,2.8225285617308917,45.0,2,0.0,Ba_5_V3,F,7_R,GGATGCTTATGCTGCGT,17,49.33869731954115,3.036515579955264,52.941176470588246,2,0.0,R,S4,A0605,Ba,,6
61917,7_F,CTCCTTATACTCGCATCGTT,7,20,49.12471030131679,2.8225285617308917,45.0,2,0.0,Ba_5_V3,F,7_R,GGATGCTTATGCTGCGT,17,49.33869731954115,3.036515579955264,52.941176470588246,2,0.0,R,S2,A0330,Ba,,0
61916,7_F,CTCCTTATACTCGCATCGTT,7,20,49.12471030131679,2.8225285617308917,45.0,2,0.0,Ba_5_V3,F,7_R,GGATGCTTATGCTGCGT,17,49.33869731954115,3.036515579955264,52.941176470588246,2,0.0,R,S5,A0615,Ba,,0
62106,7_F,CTCCTTATACTCGCATCGTT,7,20,49.12471030131679,1.8816466758011716,45.0,2,0.0,Ba_6_V4,F,7_R,GGATGCTTATGCTGCGT,17,49.33869731954115,2.095633694025544,52.941176470588246,2,0.0,R,S4,A0605,Ba,,6
62107,7_F,CTCCTTATACTCGCATCGTT,7,20,49.12471030131679,1.8816466758011716,45.0,2,0.0,Ba_6_V4,F,7_R,GGATGCTTATGCTGCGT,17,49.33869731954115,2.095633694025544,52.941176470588246,2,0.0,R,S5,A0615,Ba,,0
62108,7_F,CTCCTTATACTCGCATCGTT,7,20,49.12471030131679,1.8816466758011716,45.0,2,0.0,Ba_6_V4,F,7_R,GGATGCTTATGCTGCGT,17,49.33869731954115,2.095633694025544,52.941176470588246,2,0.0,R,S2,A0330,Ba,,0
62167,7_F,CTCCTTATACTCGCATCGTT,7,20,49.12471030131679,1.8816466758011716,45.0,2,0.0,Ba_6_V4,F,7_R,GGATGCTTATGCTGCGT,17,49.33869731954115,2.095633694025544,52.941176470588246,2,0.0,R,S144,BA-BaBTSeqBa007P2--xx-xxx-xxxx-021-SF,Ba,,433
61533,7_F,CTCCTTATACTCGCATCGTT,7,20,49.12471030131679,2.8225285617308917,45.0,2,0.0,Ba_4,F,7_R,GGATGCTTATGCTGCGT,17,49.33869731954115,3.036515579955264,52.941176470588246,2,0.0,R,S4,A0605,Ba,,6
61534,7_F,CTCCTTATACTCGCATCGTT,7,20,49.12471030131679,2.8225285617308917,45.0,2,0.0,Ba_4,F,7_R,GGATGCTTATGCTGCGT,17,49.33869731954115,3.036515579955264,52.941176470588246,2,0.0,R,S5,A0615,Ba,,0
61535,7_F,CTCCTTATACTCGCATCGTT,7,20,49.12471030131679,2.8225285617308917,45.0,2,0.0,Ba_4,F,7_R,GGATGCTTATGCTGCGT,17,49.33869731954115,3.036515579955264,52.941176470588246,2,0.0,R,S2,A0330,Ba,,0
61594,7_F,CTCCTTATACTCGCATCGTT,7,20,49.12471030131679,2.8225285617308917,45.0,2,0.0,Ba_4,F,7_R,GGATGCTTATGCTGCGT,17,49.33869731954115,3.036515579955264,52.941176470588246,2,0.0,R,S144,BA-BaBTSeqBa007P2--xx-xxx-xxxx-021-SF,Ba,,433
61785,7_F,CTCCTTATACTCGCATCGTT,7,20,49.12471030131679,2.652192854203569,45.0,2,0.0,Ba_5_V35,F,7_R,GGATGCTTATGCTGCGT,17,49.33869731954115,2.866179872427942,52.941176470588246,2,0.0,R,S144,BA-BaBTSeqBa007P2--xx-xxx-xxxx-021-SF,Ba,,433
61724,7_F,CTCCTTATACTCGCATCGTT,7,20,49.12471030131679,2.652192854203569,45.0,2,0.0,Ba_5_V35,F,7_R,GGATGCTTATGCTGCGT,17,49.33869731954115,2.866179872427942,52.941176470588246,2,0.0,R,S4,A0605,Ba,,6
61725,7_F,CTCCTTATACTCGCATCGTT,7,20,49.12471030131679,2.652192854203569,45.0,2,0.0,Ba_5_V35,F,7_R,GGATGCTTATGCTGCGT,17,49.33869731954115,2.866179872427942,52.941176470588246,2,0.0,R,S5,A0615,Ba,,0
61726,7_F,CTCCTTATACTCGCATCGTT,7,20,49.12471030131679,2.652192854203569,45.0,2,0.0,Ba_5_V35,F,7_R,GGATGCTTATGCTGCGT,17,49.33869731954115,2.866179872427942,52.941176470588246,2,0.0,R,S2,A0330,Ba,,0