,Primer_Name_L,Seq_L,Amplicon,Primer_Length_L,Tm_L,Delta Tm_L,GC_Content_L,Length_Longest_Homopolymer_L,Percent_Homopolymer_L,exp,flank_L,Primer_Name_R,Seq_R,Primer_Length_R,Tm_R,Delta Tm_R,GC_Content_R,Length_Longest_Homopolymer_R,Percent_Homopolymer_R,flank_R,sample_id,sample_name,species,strain,n_reads
36890,32_F,CGCAAATTAAGATCAAGAGACGTGT,32,25,54.3437424154995,2.3465121950151016,40.0,3,0.12,Yp_2,F,32_R,TCGGTAATCGCGCCGTCATAAGT,23,58.61434275416417,6.61711253367978,52.17391304347826,2,0.0,R,S4,A0605,Ba,,1085
36954,32_F,CGCAAATTAAGATCAAGAGACGTGT,32,25,54.3437424154995,2.3465121950151016,40.0,3,0.12,Yp_2,F,32_R,TCGGTAATCGCGCCGTCATAAGT,23,58.61434275416417,6.61711253367978,52.17391304347826,2,0.0,R,S144,BA-BaBTSeqBa007P2--xx-xxx-xxxx-021-SF,Ba,,30
36542,32_F,ATAGTCAAATCCCCATACG,32,19,45.662947510644074,1.5521761500985392,42.105263157894726,4,0.3684210526315789,Ba_V45,F,32_R,AGTGAAAGCGAAGATGAATTAGCA,24,53.163074409740325,5.947950748997705,37.5,3,0.125,R,S2,A0330,Ba,,0
36543,32_F,ATAGTCAAATCCCCATACG,32,19,45.662947510644074,1.5521761500985392,42.105263157894726,4,0.3684210526315789,Ba_V45,F,32_R,AGTGAAAGCGAAGATGAATTAGCA,24,53.163074409740325,5.947950748997705,37.5,3,0.125,R,S6,A0706,Ba,,2
36544,32_F,ATAGTCAAATCCCCATACG,32,19,45.662947510644074,1.5521761500985392,42.105263157894726,4,0.3684210526315789,Ba_V45,F,32_R,AGTGAAAGCGAAGATGAATTAGCA,24,53.163074409740325,5.947950748997705,37.5,3,0.125,R,S5,A0615,Ba,,0
36545,32_F,ATAGTCAAATCCCCATACG,32,19,45.662947510644074,1.5521761500985392,42.105263157894726,4,0.3684210526315789,Ba_V45,F,32_R,AGTGAAAGCGAAGATGAATTAGCA,24,53.163074409740325,5.947950748997705,37.5,3,0.125,R,S4,A0605,Ba,,1085
36494,32_F,ATAGTCAAATCCCCATACG,32,19,45.662947510644074,1.5801161148715366,42.105263157894726,4,0.3684210526315789,Ba_6_V4,F,32_R,AGTGAAAGCGAAGATGAATTAGCA,24,53.163074409740325,5.920010784224707,37.5,3,0.125,R,S144,BA-BaBTSeqBa007P2--xx-xxx-xxxx-021-SF,Ba,,30
36657,32_F,AAACTATCATTGGCTATCC,32,19,43.64659826781832,7.519613386865793,36.84210526315789,3,0.15789473684210525,Yp_1_V2,F,32_R,GACGCTAAGGCTAGGAGTT,19,50.51454719570671,0.6516644589774003,52.631578947368425,2,0.0,R,S2,A0330,Ba,,0
36659,32_F,AAACTATCATTGGCTATCC,32,19,43.64659826781832,7.519613386865793,36.84210526315789,3,0.15789473684210525,Yp_1_V2,F,32_R,GACGCTAAGGCTAGGAGTT,19,50.51454719570671,0.6516644589774003,52.631578947368425,2,0.0,R,S5,A0615,Ba,,0
36660,32_F,AAACTATCATTGGCTATCC,32,19,43.64659826781832,7.519613386865793,36.84210526315789,3,0.15789473684210525,Yp_1_V2,F,32_R,GACGCTAAGGCTAGGAGTT,19,50.51454719570671,0.6516644589774003,52.631578947368425,2,0.0,R,S4,A0605,Ba,,1085
36658,32_F,AAACTATCATTGGCTATCC,32,19,43.64659826781832,7.519613386865793,36.84210526315789,3,0.15789473684210525,Yp_1_V2,F,32_R,GACGCTAAGGCTAGGAGTT,19,50.51454719570671,0.6516644589774003,52.631578947368425,2,0.0,R,S6,A0706,Ba,,2
36609,32_F,ATAGTCAAATCCCCATACG,32,19,45.662947510644074,1.5521761500985392,42.105263157894726,4,0.3684210526315789,Ba_V45,F,32_R,AGTGAAAGCGAAGATGAATTAGCA,24,53.163074409740325,5.947950748997705,37.5,3,0.125,R,S144,BA-BaBTSeqBa007P2--xx-xxx-xxxx-021-SF,Ba,,30
36085,32_F,ATAGTCAAATCCCCATACG,32,19,45.662947510644074,0.6392342289418167,42.105263157894726,4,0.3684210526315789,Ba_4,F,32_R,CGAAGATGAATTAGCAGCTCT,21,50.12816701097887,3.82598527139298,42.857142857142854,2,0.0,R,S4,A0605,Ba,,1085
35852,32_F,AACTTGAATGACATCATC,32,18,41.51743339238061,3.3188747333763904,33.33333333333333,2,0.0,Ba_2,F,32_R,AAAAGTGAAAGCGAAGAT,18,44.00907419478693,0.8272339309700669,33.33333333333333,4,0.3888888888888889,R,S2,A0330,Ba,,0
35853,32_F,AACTTGAATGACATCATC,32,18,41.51743339238061,3.3188747333763904,33.33333333333333,2,0.0,Ba_2,F,32_R,AAAAGTGAAAGCGAAGAT,18,44.00907419478693,0.8272339309700669,33.33333333333333,4,0.3888888888888889,R,S6,A0706,Ba,,2
35854,32_F,AACTTGAATGACATCATC,32,18,41.51743339238061,3.3188747333763904,33.33333333333333,2,0.0,Ba_2,F,32_R,AAAAGTGAAAGCGAAGAT,18,44.00907419478693,0.8272339309700669,33.33333333333333,4,0.3888888888888889,R,S5,A0615,Ba,,0
35855,32_F,AACTTGAATGACATCATC,32,18,41.51743339238061,3.3188747333763904,33.33333333333333,2,0.0,Ba_2,F,32_R,AAAAGTGAAAGCGAAGAT,18,44.00907419478693,0.8272339309700669,33.33333333333333,4,0.3888888888888889,R,S4,A0605,Ba,,1085
35737,32_F,AACTTGAATGACATCATC,32,18,41.51743339238061,3.3188747333763904,33.33333333333333,2,0.0,Ba_1,F,32_R,AAAAGTGAAAGCGAAGAT,18,44.00907419478693,0.8272339309700669,33.33333333333333,4,0.3888888888888889,R,S2,A0330,Ba,,0
35738,32_F,AACTTGAATGACATCATC,32,18,41.51743339238061,3.3188747333763904,33.33333333333333,2,0.0,Ba_1,F,32_R,AAAAGTGAAAGCGAAGAT,18,44.00907419478693,0.8272339309700669,33.33333333333333,4,0.3888888888888889,R,S6,A0706,Ba,,2
35739,32_F,AACTTGAATGACATCATC,32,18,41.51743339238061,3.3188747333763904,33.33333333333333,2,0.0,Ba_1,F,32_R,AAAAGTGAAAGCGAAGAT,18,44.00907419478693,0.8272339309700669,33.33333333333333,4,0.3888888888888889,R,S5,A0615,Ba,,0
35740,32_F,AACTTGAATGACATCATC,32,18,41.51743339238061,3.3188747333763904,33.33333333333333,2,0.0,Ba_1,F,32_R,AAAAGTGAAAGCGAAGAT,18,44.00907419478693,0.8272339309700669,33.33333333333333,4,0.3888888888888889,R,S4,A0605,Ba,,1085
35804,32_F,AACTTGAATGACATCATC,32,18,41.51743339238061,3.3188747333763904,33.33333333333333,2,0.0,Ba_1,F,32_R,AAAAGTGAAAGCGAAGAT,18,44.00907419478693,0.8272339309700669,33.33333333333333,4,0.3888888888888889,R,S144,BA-BaBTSeqBa007P2--xx-xxx-xxxx-021-SF,Ba,,30
36034,32_F,AACTTGAATGACATCATC,32,18,41.51743339238061,3.3188747333763904,33.33333333333333,2,0.0,Ba_3,F,32_R,AAAAGTGAAAGCGAAGAT,18,44.00907419478693,0.8272339309700669,33.33333333333333,4,0.3888888888888889,R,S144,BA-BaBTSeqBa007P2--xx-xxx-xxxx-021-SF,Ba,,30
36082,32_F,ATAGTCAAATCCCCATACG,32,19,45.662947510644074,0.6392342289418167,42.105263157894726,4,0.3684210526315789,Ba_4,F,32_R,CGAAGATGAATTAGCAGCTCT,21,50.12816701097887,3.82598527139298,42.857142857142854,2,0.0,R,S2,A0330,Ba,,0
36083,32_F,ATAGTCAAATCCCCATACG,32,19,45.662947510644074,0.6392342289418167,42.105263157894726,4,0.3684210526315789,Ba_4,F,32_R,CGAAGATGAATTAGCAGCTCT,21,50.12816701097887,3.82598527139298,42.857142857142854,2,0.0,R,S6,A0706,Ba,,2
36084,32_F,ATAGTCAAATCCCCATACG,32,19,45.662947510644074,0.6392342289418167,42.105263157894726,4,0.3684210526315789,Ba_4,F,32_R,CGAAGATGAATTAGCAGCTCT,21,50.12816701097887,3.82598527139298,42.857142857142854,2,0.0,R,S5,A0615,Ba,,0
35919,32_F,AACTTGAATGACATCATC,32,18,41.51743339238061,3.3188747333763904,33.33333333333333,2,0.0,Ba_2,F,32_R,AAAAGTGAAAGCGAAGAT,18,44.00907419478693,0.8272339309700669,33.33333333333333,4,0.3888888888888889,R,S144,BA-BaBTSeqBa007P2--xx-xxx-xxxx-021-SF,Ba,,30
35967,32_F,AACTTGAATGACATCATC,32,18,41.51743339238061,3.3188747333763904,33.33333333333333,2,0.0,Ba_3,F,32_R,AAAAGTGAAAGCGAAGAT,18,44.00907419478693,0.8272339309700669,33.33333333333333,4,0.3888888888888889,R,S2,A0330,Ba,,0
35968,32_F,AACTTGAATGACATCATC,32,18,41.51743339238061,3.3188747333763904,33.33333333333333,2,0.0,Ba_3,F,32_R,AAAAGTGAAAGCGAAGAT,18,44.00907419478693,0.8272339309700669,33.33333333333333,4,0.3888888888888889,R,S6,A0706,Ba,,2
35969,32_F,AACTTGAATGACATCATC,32,18,41.51743339238061,3.3188747333763904,33.33333333333333,2,0.0,Ba_3,F,32_R,AAAAGTGAAAGCGAAGAT,18,44.00907419478693,0.8272339309700669,33.33333333333333,4,0.3888888888888889,R,S5,A0615,Ba,,0
35970,32_F,AACTTGAATGACATCATC,32,18,41.51743339238061,3.3188747333763904,33.33333333333333,2,0.0,Ba_3,F,32_R,AAAAGTGAAAGCGAAGAT,18,44.00907419478693,0.8272339309700669,33.33333333333333,4,0.3888888888888889,R,S4,A0605,Ba,,1085
89096,33_F,AAGGTTGATTTTTCAGAAGA,33,20,44.59777519001704,0.2385329357399541,30.0,5,0.25,Ba_3,F,33_R,TCACATATAAAAAAGTGCA,19,41.8461727869252,2.9901353388318057,26.315789473684212,6,0.3157894736842105,R,S144,BA-BaBTSeqBa007P2--xx-xxx-xxxx-021-SF,Ba,,188
88973,33_F,AAGGTTGATTTTTCAGAAGA,33,20,44.59777519001704,0.2385329357399541,30.0,5,0.25,Ba_2,F,33_R,TCACATATAAAAAAGTGCA,19,41.8461727869252,2.9901353388318057,26.315789473684212,6,0.3157894736842105,R,S144,BA-BaBTSeqBa007P2--xx-xxx-xxxx-021-SF,Ba,,188
89029,33_F,AAGGTTGATTTTTCAGAAGA,33,20,44.59777519001704,0.2385329357399541,30.0,5,0.25,Ba_3,F,33_R,TCACATATAAAAAAGTGCA,19,41.8461727869252,2.9901353388318057,26.315789473684212,6,0.3157894736842105,R,S6,A0706,Ba,,0
89030,33_F,AAGGTTGATTTTTCAGAAGA,33,20,44.59777519001704,0.2385329357399541,30.0,5,0.25,Ba_3,F,33_R,TCACATATAAAAAAGTGCA,19,41.8461727869252,2.9901353388318057,26.315789473684212,6,0.3157894736842105,R,S2,A0330,Ba,,0
89031,33_F,AAGGTTGATTTTTCAGAAGA,33,20,44.59777519001704,0.2385329357399541,30.0,5,0.25,Ba_3,F,33_R,TCACATATAAAAAAGTGCA,19,41.8461727869252,2.9901353388318057,26.315789473684212,6,0.3157894736842105,R,S4,A0605,Ba,,88
89032,33_F,AAGGTTGATTTTTCAGAAGA,33,20,44.59777519001704,0.2385329357399541,30.0,5,0.25,Ba_3,F,33_R,TCACATATAAAAAAGTGCA,19,41.8461727869252,2.9901353388318057,26.315789473684212,6,0.3157894736842105,R,S5,A0615,Ba,,0
89219,33_F,TTCCATGTTATTTTCCTCCTG,33,21,47.6309405876737,1.3287588480878156,38.095238095238095,4,0.19047619047619047,Ba_4,F,33_R,ATAAAGCGATTCCTCACA,18,45.06417730828753,1.2380044312983642,38.888888888888886,3,0.16666666666666666,R,S144,BA-BaBTSeqBa007P2--xx-xxx-xxxx-021-SF,Ba,,188
89277,33_F,TTCCATGTTATTTTCCTCCTG,33,21,47.6309405876737,1.1584231405604941,38.095238095238095,4,0.19047619047619047,Ba_5_V35,F,33_R,ATAAAGCGATTCCTCACA,18,45.06417730828753,1.408340138825686,38.888888888888886,3,0.16666666666666666,R,S4,A0605,Ba,,88
89275,33_F,TTCCATGTTATTTTCCTCCTG,33,21,47.6309405876737,1.1584231405604941,38.095238095238095,4,0.19047619047619047,Ba_5_V35,F,33_R,ATAAAGCGATTCCTCACA,18,45.06417730828753,1.408340138825686,38.888888888888886,3,0.16666666666666666,R,S6,A0706,Ba,,0
89276,33_F,TTCCATGTTATTTTCCTCCTG,33,21,47.6309405876737,1.1584231405604941,38.095238095238095,4,0.19047619047619047,Ba_5_V35,F,33_R,ATAAAGCGATTCCTCACA,18,45.06417730828753,1.408340138825686,38.888888888888886,3,0.16666666666666666,R,S2,A0330,Ba,,0
89278,33_F,TTCCATGTTATTTTCCTCCTG,33,21,47.6309405876737,1.1584231405604941,38.095238095238095,4,0.19047619047619047,Ba_5_V35,F,33_R,ATAAAGCGATTCCTCACA,18,45.06417730828753,1.408340138825686,38.888888888888886,3,0.16666666666666666,R,S5,A0615,Ba,,0
89153,33_F,TTCCATGTTATTTTCCTCCTG,33,21,47.6309405876737,1.3287588480878156,38.095238095238095,4,0.19047619047619047,Ba_4,F,33_R,ATAAAGCGATTCCTCACA,18,45.06417730828753,1.2380044312983642,38.888888888888886,3,0.16666666666666666,R,S2,A0330,Ba,,0
89154,33_F,TTCCATGTTATTTTCCTCCTG,33,21,47.6309405876737,1.3287588480878156,38.095238095238095,4,0.19047619047619047,Ba_4,F,33_R,ATAAAGCGATTCCTCACA,18,45.06417730828753,1.2380044312983642,38.888888888888886,3,0.16666666666666666,R,S4,A0605,Ba,,88
89155,33_F,TTCCATGTTATTTTCCTCCTG,33,21,47.6309405876737,1.3287588480878156,38.095238095238095,4,0.19047619047619047,Ba_4,F,33_R,ATAAAGCGATTCCTCACA,18,45.06417730828753,1.2380044312983642,38.888888888888886,3,0.16666666666666666,R,S5,A0615,Ba,,0
89152,33_F,TTCCATGTTATTTTCCTCCTG,33,21,47.6309405876737,1.3287588480878156,38.095238095238095,4,0.19047619047619047,Ba_4,F,33_R,ATAAAGCGATTCCTCACA,18,45.06417730828753,1.2380044312983642,38.888888888888886,3,0.16666666666666666,R,S6,A0706,Ba,,0
90016,33_F,ATACTATGGCGGCAGAGCAG,33,20,53.878930756309565,1.881700535825168,55.00000000000001,2,0.0,Yp_2,F,33_R,AGGCTTATTCACCGCAACAA,20,52.27553761432665,0.2783073938422618,45.0,2,0.0,R,S5,A0615,Ba,,0
90015,33_F,ATACTATGGCGGCAGAGCAG,33,20,53.878930756309565,1.881700535825168,55.00000000000001,2,0.0,Yp_2,F,33_R,AGGCTTATTCACCGCAACAA,20,52.27553761432665,0.2783073938422618,45.0,2,0.0,R,S4,A0605,Ba,,88
90014,33_F,ATACTATGGCGGCAGAGCAG,33,20,53.878930756309565,1.881700535825168,55.00000000000001,2,0.0,Yp_2,F,33_R,AGGCTTATTCACCGCAACAA,20,52.27553761432665,0.2783073938422618,45.0,2,0.0,R,S2,A0330,Ba,,0
90013,33_F,ATACTATGGCGGCAGAGCAG,33,20,53.878930756309565,1.881700535825168,55.00000000000001,2,0.0,Yp_2,F,33_R,AGGCTTATTCACCGCAACAA,20,52.27553761432665,0.2783073938422618,45.0,2,0.0,R,S6,A0706,Ba,,0
88783,33_F,AAGGTTGATTTTTCAGAAGA,33,20,44.59777519001704,0.2385329357399541,30.0,5,0.25,Ba_1,F,33_R,TCACATATAAAAAAGTGCA,19,41.8461727869252,2.9901353388318057,26.315789473684212,6,0.3157894736842105,R,S6,A0706,Ba,,0
88784,33_F,AAGGTTGATTTTTCAGAAGA,33,20,44.59777519001704,0.2385329357399541,30.0,5,0.25,Ba_1,F,33_R,TCACATATAAAAAAGTGCA,19,41.8461727869252,2.9901353388318057,26.315789473684212,6,0.3157894736842105,R,S2,A0330,Ba,,0
88785,33_F,AAGGTTGATTTTTCAGAAGA,33,20,44.59777519001704,0.2385329357399541,30.0,5,0.25,Ba_1,F,33_R,TCACATATAAAAAAGTGCA,19,41.8461727869252,2.9901353388318057,26.315789473684212,6,0.3157894736842105,R,S4,A0605,Ba,,88
88786,33_F,AAGGTTGATTTTTCAGAAGA,33,20,44.59777519001704,0.2385329357399541,30.0,5,0.25,Ba_1,F,33_R,TCACATATAAAAAAGTGCA,19,41.8461727869252,2.9901353388318057,26.315789473684212,6,0.3157894736842105,R,S5,A0615,Ba,,0
90080,33_F,ATACTATGGCGGCAGAGCAG,33,20,53.878930756309565,1.881700535825168,55.00000000000001,2,0.0,Yp_2,F,33_R,AGGCTTATTCACCGCAACAA,20,52.27553761432665,0.2783073938422618,45.0,2,0.0,R,S144,BA-BaBTSeqBa007P2--xx-xxx-xxxx-021-SF,Ba,,188
88906,33_F,AAGGTTGATTTTTCAGAAGA,33,20,44.59777519001704,0.2385329357399541,30.0,5,0.25,Ba_2,F,33_R,TCACATATAAAAAAGTGCA,19,41.8461727869252,2.9901353388318057,26.315789473684212,6,0.3157894736842105,R,S6,A0706,Ba,,0
88907,33_F,AAGGTTGATTTTTCAGAAGA,33,20,44.59777519001704,0.2385329357399541,30.0,5,0.25,Ba_2,F,33_R,TCACATATAAAAAAGTGCA,19,41.8461727869252,2.9901353388318057,26.315789473684212,6,0.3157894736842105,R,S2,A0330,Ba,,0
88908,33_F,AAGGTTGATTTTTCAGAAGA,33,20,44.59777519001704,0.2385329357399541,30.0,5,0.25,Ba_2,F,33_R,TCACATATAAAAAAGTGCA,19,41.8461727869252,2.9901353388318057,26.315789473684212,6,0.3157894736842105,R,S4,A0605,Ba,,88
88909,33_F,AAGGTTGATTTTTCAGAAGA,33,20,44.59777519001704,0.2385329357399541,30.0,5,0.25,Ba_2,F,33_R,TCACATATAAAAAAGTGCA,19,41.8461727869252,2.9901353388318057,26.315789473684212,6,0.3157894736842105,R,S5,A0615,Ba,,0
88850,33_F,AAGGTTGATTTTTCAGAAGA,33,20,44.59777519001704,0.2385329357399541,30.0,5,0.25,Ba_1,F,33_R,TCACATATAAAAAAGTGCA,19,41.8461727869252,2.9901353388318057,26.315789473684212,6,0.3157894736842105,R,S144,BA-BaBTSeqBa007P2--xx-xxx-xxxx-021-SF,Ba,,188
89770,33_F,GGATGTATGCATTGCTGGA,33,19,49.57263092666426,1.5935807280198515,47.368421052631575,2,0.0,Yp_1_V2,F,33_R,ACAATGTGTTCATCTTGATAG,21,45.844016634668606,5.322195020015506,33.33333333333333,2,0.0,R,S5,A0615,Ba,,0
89769,33_F,GGATGTATGCATTGCTGGA,33,19,49.57263092666426,1.5935807280198515,47.368421052631575,2,0.0,Yp_1_V2,F,33_R,ACAATGTGTTCATCTTGATAG,21,45.844016634668606,5.322195020015506,33.33333333333333,2,0.0,R,S4,A0605,Ba,,88
89768,33_F,GGATGTATGCATTGCTGGA,33,19,49.57263092666426,1.5935807280198515,47.368421052631575,2,0.0,Yp_1_V2,F,33_R,ACAATGTGTTCATCTTGATAG,21,45.844016634668606,5.322195020015506,33.33333333333333,2,0.0,R,S2,A0330,Ba,,0
89767,33_F,GGATGTATGCATTGCTGGA,33,19,49.57263092666426,1.5935807280198515,47.368421052631575,2,0.0,Yp_1_V2,F,33_R,ACAATGTGTTCATCTTGATAG,21,45.844016634668606,5.322195020015506,33.33333333333333,2,0.0,R,S6,A0706,Ba,,0
89893,33_F,GGATGTATGCATTGCTGGA,33,19,49.57263092666426,1.8522588259784245,47.368421052631575,2,0.0,Yp_1,F,33_R,ACAATGTGTTCATCTTGATAG,21,45.844016634668606,5.580873117974079,33.33333333333333,2,0.0,R,S5,A0615,Ba,,0
89892,33_F,GGATGTATGCATTGCTGGA,33,19,49.57263092666426,1.8522588259784245,47.368421052631575,2,0.0,Yp_1,F,33_R,ACAATGTGTTCATCTTGATAG,21,45.844016634668606,5.580873117974079,33.33333333333333,2,0.0,R,S4,A0605,Ba,,88
89891,33_F,GGATGTATGCATTGCTGGA,33,19,49.57263092666426,1.8522588259784245,47.368421052631575,2,0.0,Yp_1,F,33_R,ACAATGTGTTCATCTTGATAG,21,45.844016634668606,5.580873117974079,33.33333333333333,2,0.0,R,S2,A0330,Ba,,0
89890,33_F,GGATGTATGCATTGCTGGA,33,19,49.57263092666426,1.8522588259784245,47.368421052631575,2,0.0,Yp_1,F,33_R,ACAATGTGTTCATCTTGATAG,21,45.844016634668606,5.580873117974079,33.33333333333333,2,0.0,R,S6,A0706,Ba,,0
89834,33_F,GGATGTATGCATTGCTGGA,33,19,49.57263092666426,1.5935807280198515,47.368421052631575,2,0.0,Yp_1_V2,F,33_R,ACAATGTGTTCATCTTGATAG,21,45.844016634668606,5.322195020015506,33.33333333333333,2,0.0,R,S144,BA-BaBTSeqBa007P2--xx-xxx-xxxx-021-SF,Ba,,188
89647,33_F,TTCCATGTTATTTTCCTCCTG,33,21,47.6309405876737,0.4158169269310932,38.095238095238095,4,0.19047619047619047,Ba_V45,F,33_R,ATAAAGCGATTCCTCACA,18,45.06417730828753,2.1509463524550867,38.888888888888886,3,0.16666666666666666,R,S5,A0615,Ba,,0
89646,33_F,TTCCATGTTATTTTCCTCCTG,33,21,47.6309405876737,0.4158169269310932,38.095238095238095,4,0.19047619047619047,Ba_V45,F,33_R,ATAAAGCGATTCCTCACA,18,45.06417730828753,2.1509463524550867,38.888888888888886,3,0.16666666666666666,R,S4,A0605,Ba,,88
89645,33_F,TTCCATGTTATTTTCCTCCTG,33,21,47.6309405876737,0.4158169269310932,38.095238095238095,4,0.19047619047619047,Ba_V45,F,33_R,ATAAAGCGATTCCTCACA,18,45.06417730828753,2.1509463524550867,38.888888888888886,3,0.16666666666666666,R,S2,A0330,Ba,,0
89644,33_F,TTCCATGTTATTTTCCTCCTG,33,21,47.6309405876737,0.4158169269310932,38.095238095238095,4,0.19047619047619047,Ba_V45,F,33_R,ATAAAGCGATTCCTCACA,18,45.06417730828753,2.1509463524550867,38.888888888888886,3,0.16666666666666666,R,S6,A0706,Ba,,0
89588,33_F,TTCCATGTTATTTTCCTCCTG,33,21,47.6309405876737,0.38787696215809575,38.095238095238095,4,0.19047619047619047,Ba_6_V4,F,33_R,ATAAAGCGATTCCTCACA,18,45.06417730828753,2.178886317228084,38.888888888888886,3,0.16666666666666666,R,S144,BA-BaBTSeqBa007P2--xx-xxx-xxxx-021-SF,Ba,,188
89711,33_F,TTCCATGTTATTTTCCTCCTG,33,21,47.6309405876737,0.4158169269310932,38.095238095238095,4,0.19047619047619047,Ba_V45,F,33_R,ATAAAGCGATTCCTCACA,18,45.06417730828753,2.1509463524550867,38.888888888888886,3,0.16666666666666666,R,S144,BA-BaBTSeqBa007P2--xx-xxx-xxxx-021-SF,Ba,,188
89398,33_F,TTCCATGTTATTTTCCTCCTG,33,21,47.6309405876737,1.3287588480878156,38.095238095238095,4,0.19047619047619047,Ba_5_V3,F,33_R,ATAAAGCGATTCCTCACA,18,45.06417730828753,1.2380044312983642,38.888888888888886,3,0.16666666666666666,R,S6,A0706,Ba,,0
89399,33_F,TTCCATGTTATTTTCCTCCTG,33,21,47.6309405876737,1.3287588480878156,38.095238095238095,4,0.19047619047619047,Ba_5_V3,F,33_R,ATAAAGCGATTCCTCACA,18,45.06417730828753,1.2380044312983642,38.888888888888886,3,0.16666666666666666,R,S2,A0330,Ba,,0
89400,33_F,TTCCATGTTATTTTCCTCCTG,33,21,47.6309405876737,1.3287588480878156,38.095238095238095,4,0.19047619047619047,Ba_5_V3,F,33_R,ATAAAGCGATTCCTCACA,18,45.06417730828753,1.2380044312983642,38.888888888888886,3,0.16666666666666666,R,S4,A0605,Ba,,88
89401,33_F,TTCCATGTTATTTTCCTCCTG,33,21,47.6309405876737,1.3287588480878156,38.095238095238095,4,0.19047619047619047,Ba_5_V3,F,33_R,ATAAAGCGATTCCTCACA,18,45.06417730828753,1.2380044312983642,38.888888888888886,3,0.16666666666666666,R,S5,A0615,Ba,,0
89465,33_F,TTCCATGTTATTTTCCTCCTG,33,21,47.6309405876737,1.3287588480878156,38.095238095238095,4,0.19047619047619047,Ba_5_V3,F,33_R,ATAAAGCGATTCCTCACA,18,45.06417730828753,1.2380044312983642,38.888888888888886,3,0.16666666666666666,R,S144,BA-BaBTSeqBa007P2--xx-xxx-xxxx-021-SF,Ba,,188
89342,33_F,TTCCATGTTATTTTCCTCCTG,33,21,47.6309405876737,1.1584231405604941,38.095238095238095,4,0.19047619047619047,Ba_5_V35,F,33_R,ATAAAGCGATTCCTCACA,18,45.06417730828753,1.408340138825686,38.888888888888886,3,0.16666666666666666,R,S144,BA-BaBTSeqBa007P2--xx-xxx-xxxx-021-SF,Ba,,188
89524,33_F,TTCCATGTTATTTTCCTCCTG,33,21,47.6309405876737,0.38787696215809575,38.095238095238095,4,0.19047619047619047,Ba_6_V4,F,33_R,ATAAAGCGATTCCTCACA,18,45.06417730828753,2.178886317228084,38.888888888888886,3,0.16666666666666666,R,S5,A0615,Ba,,0
89522,33_F,TTCCATGTTATTTTCCTCCTG,33,21,47.6309405876737,0.38787696215809575,38.095238095238095,4,0.19047619047619047,Ba_6_V4,F,33_R,ATAAAGCGATTCCTCACA,18,45.06417730828753,2.178886317228084,38.888888888888886,3,0.16666666666666666,R,S2,A0330,Ba,,0
89521,33_F,TTCCATGTTATTTTCCTCCTG,33,21,47.6309405876737,0.38787696215809575,38.095238095238095,4,0.19047619047619047,Ba_6_V4,F,33_R,ATAAAGCGATTCCTCACA,18,45.06417730828753,2.178886317228084,38.888888888888886,3,0.16666666666666666,R,S6,A0706,Ba,,0