,Primer_Name_L,Seq_L,Amplicon,Primer_Length_L,Tm_L,Delta Tm_L,GC_Content_L,Length_Longest_Homopolymer_L,Percent_Homopolymer_L,exp,flank_L,Primer_Name_R,Seq_R,Primer_Length_R,Tm_R,Delta Tm_R,GC_Content_R,Length_Longest_Homopolymer_R,Percent_Homopolymer_R,flank_R,sample_id,sample_name,species,strain,n_reads
1405,2_F,AGACAACGAGTTGCATTT,2,18,46.7476271636849,0.4454454240990202,38.888888888888886,3,0.16666666666666666,Ba_4,F,2_R,AAATTACTGTCTTTTCTTCC,20,43.08435689616829,3.2178248434176027,30.0,4,0.35,R,S4,A0605,Ba,,1758
1209,2_F,AGACAACGAGTTGCATTT,2,18,46.7476271636849,1.9113190379279104,38.888888888888886,3,0.16666666666666666,Ba_3,F,2_R,AAATTACTGTCTTTTCTTCC,20,43.08435689616829,1.7519512295887123,30.0,4,0.35,R,S5,A0615,Ba,,1
1208,2_F,AGACAACGAGTTGCATTT,2,18,46.7476271636849,1.9113190379279104,38.888888888888886,3,0.16666666666666666,Ba_3,F,2_R,AAATTACTGTCTTTTCTTCC,20,43.08435689616829,1.7519512295887123,30.0,4,0.35,R,S2,A0330,Ba,,0
1207,2_F,AGACAACGAGTTGCATTT,2,18,46.7476271636849,1.9113190379279104,38.888888888888886,3,0.16666666666666666,Ba_3,F,2_R,AAATTACTGTCTTTTCTTCC,20,43.08435689616829,1.7519512295887123,30.0,4,0.35,R,S6,A0706,Ba,,2
1206,2_F,AGACAACGAGTTGCATTT,2,18,46.7476271636849,1.9113190379279104,38.888888888888886,3,0.16666666666666666,Ba_3,F,2_R,AAATTACTGTCTTTTCTTCC,20,43.08435689616829,1.7519512295887123,30.0,4,0.35,R,S4,A0605,Ba,,1758
1283,2_F,AGACAACGAGTTGCATTT,2,18,46.7476271636849,1.9113190379279104,38.888888888888886,3,0.16666666666666666,Ba_3,F,2_R,AAATTACTGTCTTTTCTTCC,20,43.08435689616829,1.7519512295887123,30.0,4,0.35,R,S144,BA-BaBTSeqBa007P2--xx-xxx-xxxx-021-SF,Ba,,37
885,2_F,AGACAACGAGTTGCATTT,2,18,46.7476271636849,1.9113190379279104,38.888888888888886,3,0.16666666666666666,Ba_1,F,2_R,AAATTACTGTCTTTTCTTCC,20,43.08435689616829,1.7519512295887123,30.0,4,0.35,R,S144,BA-BaBTSeqBa007P2--xx-xxx-xxxx-021-SF,Ba,,37
808,2_F,AGACAACGAGTTGCATTT,2,18,46.7476271636849,1.9113190379279104,38.888888888888886,3,0.16666666666666666,Ba_1,F,2_R,AAATTACTGTCTTTTCTTCC,20,43.08435689616829,1.7519512295887123,30.0,4,0.35,R,S4,A0605,Ba,,1758
809,2_F,AGACAACGAGTTGCATTT,2,18,46.7476271636849,1.9113190379279104,38.888888888888886,3,0.16666666666666666,Ba_1,F,2_R,AAATTACTGTCTTTTCTTCC,20,43.08435689616829,1.7519512295887123,30.0,4,0.35,R,S6,A0706,Ba,,2
810,2_F,AGACAACGAGTTGCATTT,2,18,46.7476271636849,1.9113190379279104,38.888888888888886,3,0.16666666666666666,Ba_1,F,2_R,AAATTACTGTCTTTTCTTCC,20,43.08435689616829,1.7519512295887123,30.0,4,0.35,R,S2,A0330,Ba,,0
811,2_F,AGACAACGAGTTGCATTT,2,18,46.7476271636849,1.9113190379279104,38.888888888888886,3,0.16666666666666666,Ba_1,F,2_R,AAATTACTGTCTTTTCTTCC,20,43.08435689616829,1.7519512295887123,30.0,4,0.35,R,S5,A0615,Ba,,1
1084,2_F,AGACAACGAGTTGCATTT,2,18,46.7476271636849,1.9113190379279104,38.888888888888886,3,0.16666666666666666,Ba_2,F,2_R,AAATTACTGTCTTTTCTTCC,20,43.08435689616829,1.7519512295887123,30.0,4,0.35,R,S144,BA-BaBTSeqBa007P2--xx-xxx-xxxx-021-SF,Ba,,37
1007,2_F,AGACAACGAGTTGCATTT,2,18,46.7476271636849,1.9113190379279104,38.888888888888886,3,0.16666666666666666,Ba_2,F,2_R,AAATTACTGTCTTTTCTTCC,20,43.08435689616829,1.7519512295887123,30.0,4,0.35,R,S4,A0605,Ba,,1758
1008,2_F,AGACAACGAGTTGCATTT,2,18,46.7476271636849,1.9113190379279104,38.888888888888886,3,0.16666666666666666,Ba_2,F,2_R,AAATTACTGTCTTTTCTTCC,20,43.08435689616829,1.7519512295887123,30.0,4,0.35,R,S6,A0706,Ba,,2
1009,2_F,AGACAACGAGTTGCATTT,2,18,46.7476271636849,1.9113190379279104,38.888888888888886,3,0.16666666666666666,Ba_2,F,2_R,AAATTACTGTCTTTTCTTCC,20,43.08435689616829,1.7519512295887123,30.0,4,0.35,R,S2,A0330,Ba,,0
1010,2_F,AGACAACGAGTTGCATTT,2,18,46.7476271636849,1.9113190379279104,38.888888888888886,3,0.16666666666666666,Ba_2,F,2_R,AAATTACTGTCTTTTCTTCC,20,43.08435689616829,1.7519512295887123,30.0,4,0.35,R,S5,A0615,Ba,,1
2201,2_F,CAAGAACGCTAATGCAAGAAGC,2,22,53.16196078263971,0.7974034735003812,45.45454545454545,2,0.0,Ba_HighSH,F,2_R,CATGCTCAATGCCTACAAGATGG,23,54.14878936891034,1.7842320597710142,47.82608695652174,2,0.0,R,S4,A0605,Ba,,1758
2202,2_F,CAAGAACGCTAATGCAAGAAGC,2,22,53.16196078263971,0.7974034735003812,45.45454545454545,2,0.0,Ba_HighSH,F,2_R,CATGCTCAATGCCTACAAGATGG,23,54.14878936891034,1.7842320597710142,47.82608695652174,2,0.0,R,S6,A0706,Ba,,2
2203,2_F,CAAGAACGCTAATGCAAGAAGC,2,22,53.16196078263971,0.7974034735003812,45.45454545454545,2,0.0,Ba_HighSH,F,2_R,CATGCTCAATGCCTACAAGATGG,23,54.14878936891034,1.7842320597710142,47.82608695652174,2,0.0,R,S2,A0330,Ba,,0
2204,2_F,CAAGAACGCTAATGCAAGAAGC,2,22,53.16196078263971,0.7974034735003812,45.45454545454545,2,0.0,Ba_HighSH,F,2_R,CATGCTCAATGCCTACAAGATGG,23,54.14878936891034,1.7842320597710142,47.82608695652174,2,0.0,R,S5,A0615,Ba,,1
2002,2_F,TAGAGAAAGCACAATTAGCT,2,20,46.10971756543739,1.1333460600782177,35.0,3,0.15,Ba_6_V4,F,2_R,AAATTACTGTCTTTTCTTCC,20,43.08435689616829,4.1587067293473226,30.0,4,0.35,R,S4,A0605,Ba,,1758
2003,2_F,TAGAGAAAGCACAATTAGCT,2,20,46.10971756543739,1.1333460600782177,35.0,3,0.15,Ba_6_V4,F,2_R,AAATTACTGTCTTTTCTTCC,20,43.08435689616829,4.1587067293473226,30.0,4,0.35,R,S6,A0706,Ba,,2
2004,2_F,TAGAGAAAGCACAATTAGCT,2,20,46.10971756543739,1.1333460600782177,35.0,3,0.15,Ba_6_V4,F,2_R,AAATTACTGTCTTTTCTTCC,20,43.08435689616829,4.1587067293473226,30.0,4,0.35,R,S2,A0330,Ba,,0
2005,2_F,TAGAGAAAGCACAATTAGCT,2,20,46.10971756543739,1.1333460600782177,35.0,3,0.15,Ba_6_V4,F,2_R,AAATTACTGTCTTTTCTTCC,20,43.08435689616829,4.1587067293473226,30.0,4,0.35,R,S5,A0615,Ba,,1
2079,2_F,TAGAGAAAGCACAATTAGCT,2,20,46.10971756543739,1.1333460600782177,35.0,3,0.15,Ba_6_V4,F,2_R,AAATTACTGTCTTTTCTTCC,20,43.08435689616829,4.1587067293473226,30.0,4,0.35,R,S144,BA-BaBTSeqBa007P2--xx-xxx-xxxx-021-SF,Ba,,37
2477,2_F,ACCAGAGGCAACAGATGAAG,2,20,51.68754598531842,0.1650998771745691,50.0,2,0.0,Ba_HighSpec,F,2_R,TTGTTCATGACTACCTTGC,19,47.19377550765239,4.328670600491464,42.105263157894726,2,0.0,R,S144,BA-BaBTSeqBa007P2--xx-xxx-xxxx-021-SF,Ba,,37
2278,2_F,CAAGAACGCTAATGCAAGAAGC,2,22,53.16196078263971,0.7974034735003812,45.45454545454545,2,0.0,Ba_HighSH,F,2_R,CATGCTCAATGCCTACAAGATGG,23,54.14878936891034,1.7842320597710142,47.82608695652174,2,0.0,R,S144,BA-BaBTSeqBa007P2--xx-xxx-xxxx-021-SF,Ba,,37
2400,2_F,ACCAGAGGCAACAGATGAAG,2,20,51.68754598531842,0.1650998771745691,50.0,2,0.0,Ba_HighSpec,F,2_R,TTGTTCATGACTACCTTGC,19,47.19377550765239,4.328670600491464,42.105263157894726,2,0.0,R,S4,A0605,Ba,,1758
2401,2_F,ACCAGAGGCAACAGATGAAG,2,20,51.68754598531842,0.1650998771745691,50.0,2,0.0,Ba_HighSpec,F,2_R,TTGTTCATGACTACCTTGC,19,47.19377550765239,4.328670600491464,42.105263157894726,2,0.0,R,S6,A0706,Ba,,2
2402,2_F,ACCAGAGGCAACAGATGAAG,2,20,51.68754598531842,0.1650998771745691,50.0,2,0.0,Ba_HighSpec,F,2_R,TTGTTCATGACTACCTTGC,19,47.19377550765239,4.328670600491464,42.105263157894726,2,0.0,R,S2,A0330,Ba,,0
2403,2_F,ACCAGAGGCAACAGATGAAG,2,20,51.68754598531842,0.1650998771745691,50.0,2,0.0,Ba_HighSpec,F,2_R,TTGTTCATGACTACCTTGC,19,47.19377550765239,4.328670600491464,42.105263157894726,2,0.0,R,S5,A0615,Ba,,1
1607,2_F,AGACAACGAGTTGCATTT,2,18,46.7476271636849,0.2751097165716985,38.888888888888886,3,0.16666666666666666,Ba_5_V35,F,2_R,AAATTACTGTCTTTTCTTCC,20,43.08435689616829,3.3881605509449244,30.0,4,0.35,R,S5,A0615,Ba,,1
1606,2_F,AGACAACGAGTTGCATTT,2,18,46.7476271636849,0.2751097165716985,38.888888888888886,3,0.16666666666666666,Ba_5_V35,F,2_R,AAATTACTGTCTTTTCTTCC,20,43.08435689616829,3.3881605509449244,30.0,4,0.35,R,S2,A0330,Ba,,0
1605,2_F,AGACAACGAGTTGCATTT,2,18,46.7476271636849,0.2751097165716985,38.888888888888886,3,0.16666666666666666,Ba_5_V35,F,2_R,AAATTACTGTCTTTTCTTCC,20,43.08435689616829,3.3881605509449244,30.0,4,0.35,R,S6,A0706,Ba,,2
1604,2_F,AGACAACGAGTTGCATTT,2,18,46.7476271636849,0.2751097165716985,38.888888888888886,3,0.16666666666666666,Ba_5_V35,F,2_R,AAATTACTGTCTTTTCTTCC,20,43.08435689616829,3.3881605509449244,30.0,4,0.35,R,S4,A0605,Ba,,1758
1681,2_F,AGACAACGAGTTGCATTT,2,18,46.7476271636849,0.2751097165716985,38.888888888888886,3,0.16666666666666666,Ba_5_V35,F,2_R,AAATTACTGTCTTTTCTTCC,20,43.08435689616829,3.3881605509449244,30.0,4,0.35,R,S144,BA-BaBTSeqBa007P2--xx-xxx-xxxx-021-SF,Ba,,37
1880,2_F,AGACAACGAGTTGCATTT,2,18,46.7476271636849,0.4454454240990202,38.888888888888886,3,0.16666666666666666,Ba_5_V3,F,2_R,AAATTACTGTCTTTTCTTCC,20,43.08435689616829,3.2178248434176027,30.0,4,0.35,R,S144,BA-BaBTSeqBa007P2--xx-xxx-xxxx-021-SF,Ba,,37
1482,2_F,AGACAACGAGTTGCATTT,2,18,46.7476271636849,0.4454454240990202,38.888888888888886,3,0.16666666666666666,Ba_4,F,2_R,AAATTACTGTCTTTTCTTCC,20,43.08435689616829,3.2178248434176027,30.0,4,0.35,R,S144,BA-BaBTSeqBa007P2--xx-xxx-xxxx-021-SF,Ba,,37
1803,2_F,AGACAACGAGTTGCATTT,2,18,46.7476271636849,0.4454454240990202,38.888888888888886,3,0.16666666666666666,Ba_5_V3,F,2_R,AAATTACTGTCTTTTCTTCC,20,43.08435689616829,3.2178248434176027,30.0,4,0.35,R,S4,A0605,Ba,,1758
1804,2_F,AGACAACGAGTTGCATTT,2,18,46.7476271636849,0.4454454240990202,38.888888888888886,3,0.16666666666666666,Ba_5_V3,F,2_R,AAATTACTGTCTTTTCTTCC,20,43.08435689616829,3.2178248434176027,30.0,4,0.35,R,S6,A0706,Ba,,2
1805,2_F,AGACAACGAGTTGCATTT,2,18,46.7476271636849,0.4454454240990202,38.888888888888886,3,0.16666666666666666,Ba_5_V3,F,2_R,AAATTACTGTCTTTTCTTCC,20,43.08435689616829,3.2178248434176027,30.0,4,0.35,R,S2,A0330,Ba,,0
1806,2_F,AGACAACGAGTTGCATTT,2,18,46.7476271636849,0.4454454240990202,38.888888888888886,3,0.16666666666666666,Ba_5_V3,F,2_R,AAATTACTGTCTTTTCTTCC,20,43.08435689616829,3.2178248434176027,30.0,4,0.35,R,S5,A0615,Ba,,1
3273,2_F,GAAAGCGAAAAAGATTAAACTC,2,22,46.836756847747886,2.019534752476126,31.818181818181817,5,0.5,Ft_1,F,2_R,GGAAGTAGTAATAAAATTCTGTGG,24,47.66335924840848,1.1929323518155357,33.33333333333333,4,0.16666666666666666,R,S144,BA-BaBTSeqBa007P2--xx-xxx-xxxx-021-SF,Ba,,37
3198,2_F,GAAAGCGAAAAAGATTAAACTC,2,22,46.836756847747886,2.019534752476126,31.818181818181817,5,0.5,Ft_1,F,2_R,GGAAGTAGTAATAAAATTCTGTGG,24,47.66335924840848,1.1929323518155357,33.33333333333333,4,0.16666666666666666,R,S2,A0330,Ba,,0
3199,2_F,GAAAGCGAAAAAGATTAAACTC,2,22,46.836756847747886,2.019534752476126,31.818181818181817,5,0.5,Ft_1,F,2_R,GGAAGTAGTAATAAAATTCTGTGG,24,47.66335924840848,1.1929323518155357,33.33333333333333,4,0.16666666666666666,R,S5,A0615,Ba,,1
3197,2_F,GAAAGCGAAAAAGATTAAACTC,2,22,46.836756847747886,2.019534752476126,31.818181818181817,5,0.5,Ft_1,F,2_R,GGAAGTAGTAATAAAATTCTGTGG,24,47.66335924840848,1.1929323518155357,33.33333333333333,4,0.16666666666666666,R,S6,A0706,Ba,,2
3196,2_F,GAAAGCGAAAAAGATTAAACTC,2,22,46.836756847747886,2.019534752476126,31.818181818181817,5,0.5,Ft_1,F,2_R,GGAAGTAGTAATAAAATTCTGTGG,24,47.66335924840848,1.1929323518155357,33.33333333333333,4,0.16666666666666666,R,S4,A0605,Ba,,1758
3597,2_F,AAGATTAAACTCTCACTCAAAG,2,22,46.054796755394314,4.217979084015703,31.818181818181817,3,0.2727272727272727,Ft_2,F,2_R,AATGGTTTTATATGCTTGGAA,21,45.46773377857306,4.805042060836946,28.57142857142857,4,0.19047619047619047,R,S5,A0615,Ba,,1
3596,2_F,AAGATTAAACTCTCACTCAAAG,2,22,46.054796755394314,4.217979084015703,31.818181818181817,3,0.2727272727272727,Ft_2,F,2_R,AATGGTTTTATATGCTTGGAA,21,45.46773377857306,4.805042060836946,28.57142857142857,4,0.19047619047619047,R,S2,A0330,Ba,,0
3595,2_F,AAGATTAAACTCTCACTCAAAG,2,22,46.054796755394314,4.217979084015703,31.818181818181817,3,0.2727272727272727,Ft_2,F,2_R,AATGGTTTTATATGCTTGGAA,21,45.46773377857306,4.805042060836946,28.57142857142857,4,0.19047619047619047,R,S6,A0706,Ba,,2
3594,2_F,AAGATTAAACTCTCACTCAAAG,2,22,46.054796755394314,4.217979084015703,31.818181818181817,3,0.2727272727272727,Ft_2,F,2_R,AATGGTTTTATATGCTTGGAA,21,45.46773377857306,4.805042060836946,28.57142857142857,4,0.19047619047619047,R,S4,A0605,Ba,,1758
3398,2_F,AAGATTAAACTCTCACTCAAAG,2,22,46.054796755394314,4.002391088419587,31.818181818181817,3,0.2727272727272727,Ft_2_V2,F,2_R,AATGGTTTTATATGCTTGGAA,21,45.46773377857306,4.5894540652408296,28.57142857142857,4,0.19047619047619047,R,S5,A0615,Ba,,1
3397,2_F,AAGATTAAACTCTCACTCAAAG,2,22,46.054796755394314,4.002391088419587,31.818181818181817,3,0.2727272727272727,Ft_2_V2,F,2_R,AATGGTTTTATATGCTTGGAA,21,45.46773377857306,4.5894540652408296,28.57142857142857,4,0.19047619047619047,R,S2,A0330,Ba,,0
3396,2_F,AAGATTAAACTCTCACTCAAAG,2,22,46.054796755394314,4.002391088419587,31.818181818181817,3,0.2727272727272727,Ft_2_V2,F,2_R,AATGGTTTTATATGCTTGGAA,21,45.46773377857306,4.5894540652408296,28.57142857142857,4,0.19047619047619047,R,S6,A0706,Ba,,2
3395,2_F,AAGATTAAACTCTCACTCAAAG,2,22,46.054796755394314,4.002391088419587,31.818181818181817,3,0.2727272727272727,Ft_2_V2,F,2_R,AATGGTTTTATATGCTTGGAA,21,45.46773377857306,4.5894540652408296,28.57142857142857,4,0.19047619047619047,R,S4,A0605,Ba,,1758
3472,2_F,AAGATTAAACTCTCACTCAAAG,2,22,46.054796755394314,4.002391088419587,31.818181818181817,3,0.2727272727272727,Ft_2_V2,F,2_R,AATGGTTTTATATGCTTGGAA,21,45.46773377857306,4.5894540652408296,28.57142857142857,4,0.19047619047619047,R,S144,BA-BaBTSeqBa007P2--xx-xxx-xxxx-021-SF,Ba,,37
2800,2_F,ACCAGAGGCAACAGATGAAG,2,20,51.68754598531842,0.9724613785156322,50.0,2,0.0,Ba_OkX,F,2_R,CATGCTCAATGCCTACAAGATGG,23,54.14878936891034,3.4337047621075527,47.82608695652174,2,0.0,R,S2,A0330,Ba,,0
2799,2_F,ACCAGAGGCAACAGATGAAG,2,20,51.68754598531842,0.9724613785156322,50.0,2,0.0,Ba_OkX,F,2_R,CATGCTCAATGCCTACAAGATGG,23,54.14878936891034,3.4337047621075527,47.82608695652174,2,0.0,R,S6,A0706,Ba,,2
2798,2_F,ACCAGAGGCAACAGATGAAG,2,20,51.68754598531842,0.9724613785156322,50.0,2,0.0,Ba_OkX,F,2_R,CATGCTCAATGCCTACAAGATGG,23,54.14878936891034,3.4337047621075527,47.82608695652174,2,0.0,R,S4,A0605,Ba,,1758
2801,2_F,ACCAGAGGCAACAGATGAAG,2,20,51.68754598531842,0.9724613785156322,50.0,2,0.0,Ba_OkX,F,2_R,CATGCTCAATGCCTACAAGATGG,23,54.14878936891034,3.4337047621075527,47.82608695652174,2,0.0,R,S5,A0615,Ba,,1
2601,2_F,CAAGAACGCTAATGCAAGAAGC,2,22,53.16196078263971,1.589546964101963,45.45454545454545,2,0.0,Ba_LowSH,F,2_R,ACAAGATGGTGCGTAAT,17,44.932153698968136,6.640260119569612,41.17647058823529,2,0.0,R,S2,A0330,Ba,,0
2600,2_F,CAAGAACGCTAATGCAAGAAGC,2,22,53.16196078263971,1.589546964101963,45.45454545454545,2,0.0,Ba_LowSH,F,2_R,ACAAGATGGTGCGTAAT,17,44.932153698968136,6.640260119569612,41.17647058823529,2,0.0,R,S6,A0706,Ba,,2
2599,2_F,CAAGAACGCTAATGCAAGAAGC,2,22,53.16196078263971,1.589546964101963,45.45454545454545,2,0.0,Ba_LowSH,F,2_R,ACAAGATGGTGCGTAAT,17,44.932153698968136,6.640260119569612,41.17647058823529,2,0.0,R,S4,A0605,Ba,,1758
2602,2_F,CAAGAACGCTAATGCAAGAAGC,2,22,53.16196078263971,1.589546964101963,45.45454545454545,2,0.0,Ba_LowSH,F,2_R,ACAAGATGGTGCGTAAT,17,44.932153698968136,6.640260119569612,41.17647058823529,2,0.0,R,S5,A0615,Ba,,1
2676,2_F,CAAGAACGCTAATGCAAGAAGC,2,22,53.16196078263971,1.589546964101963,45.45454545454545,2,0.0,Ba_LowSH,F,2_R,ACAAGATGGTGCGTAAT,17,44.932153698968136,6.640260119569612,41.17647058823529,2,0.0,R,S144,BA-BaBTSeqBa007P2--xx-xxx-xxxx-021-SF,Ba,,37
3074,2_F,TAGAGAAAGCACAATTAGCT,2,20,46.10971756543739,1.10540609530522,35.0,3,0.15,Ba_V45,F,2_R,AAATTACTGTCTTTTCTTCC,20,43.08435689616829,4.130766764574325,30.0,4,0.35,R,S144,BA-BaBTSeqBa007P2--xx-xxx-xxxx-021-SF,Ba,,37
3000,2_F,TAGAGAAAGCACAATTAGCT,2,20,46.10971756543739,1.10540609530522,35.0,3,0.15,Ba_V45,F,2_R,AAATTACTGTCTTTTCTTCC,20,43.08435689616829,4.130766764574325,30.0,4,0.35,R,S5,A0615,Ba,,1
2999,2_F,TAGAGAAAGCACAATTAGCT,2,20,46.10971756543739,1.10540609530522,35.0,3,0.15,Ba_V45,F,2_R,AAATTACTGTCTTTTCTTCC,20,43.08435689616829,4.130766764574325,30.0,4,0.35,R,S2,A0330,Ba,,0
2998,2_F,TAGAGAAAGCACAATTAGCT,2,20,46.10971756543739,1.10540609530522,35.0,3,0.15,Ba_V45,F,2_R,AAATTACTGTCTTTTCTTCC,20,43.08435689616829,4.130766764574325,30.0,4,0.35,R,S6,A0706,Ba,,2
2997,2_F,TAGAGAAAGCACAATTAGCT,2,20,46.10971756543739,1.10540609530522,35.0,3,0.15,Ba_V45,F,2_R,AAATTACTGTCTTTTCTTCC,20,43.08435689616829,4.130766764574325,30.0,4,0.35,R,S4,A0605,Ba,,1758
2875,2_F,ACCAGAGGCAACAGATGAAG,2,20,51.68754598531842,0.9724613785156322,50.0,2,0.0,Ba_OkX,F,2_R,CATGCTCAATGCCTACAAGATGG,23,54.14878936891034,3.4337047621075527,47.82608695652174,2,0.0,R,S144,BA-BaBTSeqBa007P2--xx-xxx-xxxx-021-SF,Ba,,37
56584,3_F,AGACAATTCCAGGGTACGT,3,19,49.77916692296021,2.5361032974445905,47.368421052631575,3,0.15789473684210525,Ba_6_V4,F,3_R,ATCGTATCTTTTCACTTCACCT,22,49.33671505596897,2.093651430453356,36.36363636363637,4,0.18181818181818185,R,S144,BA-BaBTSeqBa007P2--xx-xxx-xxxx-021-SF,Ba,,45
56518,3_F,AGACAATTCCAGGGTACGT,3,19,49.77916692296021,2.5361032974445905,47.368421052631575,3,0.15789473684210525,Ba_6_V4,F,3_R,ATCGTATCTTTTCACTTCACCT,22,49.33671505596897,2.093651430453356,36.36363636363637,4,0.18181818181818185,R,S4,A0605,Ba,,11528
56519,3_F,AGACAATTCCAGGGTACGT,3,19,49.77916692296021,2.5361032974445905,47.368421052631575,3,0.15789473684210525,Ba_6_V4,F,3_R,ATCGTATCTTTTCACTTCACCT,22,49.33671505596897,2.093651430453356,36.36363636363637,4,0.18181818181818185,R,S5,A0615,Ba,,221
56520,3_F,AGACAATTCCAGGGTACGT,3,19,49.77916692296021,2.5361032974445905,47.368421052631575,3,0.15789473684210525,Ba_6_V4,F,3_R,ATCGTATCTTTTCACTTCACCT,22,49.33671505596897,2.093651430453356,36.36363636363637,4,0.18181818181818185,R,S2,A0330,Ba,,238
56521,3_F,AGACAATTCCAGGGTACGT,3,19,49.77916692296021,2.5361032974445905,47.368421052631575,3,0.15789473684210525,Ba_6_V4,F,3_R,ATCGTATCTTTTCACTTCACCT,22,49.33671505596897,2.093651430453356,36.36363636363637,4,0.18181818181818185,R,S6,A0706,Ba,,227
56397,3_F,CGTGTGGTAAGGCAAG,3,16,46.436489367455245,0.13430762786934736,56.25,2,0.0,Ba_5_V3,F,3_R,ATCGTATCTTTTCACTTCACCT,22,49.33671505596897,3.0345333163830763,36.36363636363637,4,0.18181818181818185,R,S144,BA-BaBTSeqBa007P2--xx-xxx-xxxx-021-SF,Ba,,45
56331,3_F,CGTGTGGTAAGGCAAG,3,16,46.436489367455245,0.13430762786934736,56.25,2,0.0,Ba_5_V3,F,3_R,ATCGTATCTTTTCACTTCACCT,22,49.33671505596897,3.0345333163830763,36.36363636363637,4,0.18181818181818185,R,S4,A0605,Ba,,11528
56332,3_F,CGTGTGGTAAGGCAAG,3,16,46.436489367455245,0.13430762786934736,56.25,2,0.0,Ba_5_V3,F,3_R,ATCGTATCTTTTCACTTCACCT,22,49.33671505596897,3.0345333163830763,36.36363636363637,4,0.18181818181818185,R,S5,A0615,Ba,,221
56333,3_F,CGTGTGGTAAGGCAAG,3,16,46.436489367455245,0.13430762786934736,56.25,2,0.0,Ba_5_V3,F,3_R,ATCGTATCTTTTCACTTCACCT,22,49.33671505596897,3.0345333163830763,36.36363636363637,4,0.18181818181818185,R,S2,A0330,Ba,,238
56334,3_F,CGTGTGGTAAGGCAAG,3,16,46.436489367455245,0.13430762786934736,56.25,2,0.0,Ba_5_V3,F,3_R,ATCGTATCTTTTCACTTCACCT,22,49.33671505596897,3.0345333163830763,36.36363636363637,4,0.18181818181818185,R,S6,A0706,Ba,,227
56892,3_F,TTAGAGCGTGTGGTAAGGC,3,19,51.46953400398121,0.05291210416264392,52.631578947368425,2,0.0,Ba_HighSpec,F,3_R,TACTACTACAACGCCCTCTATC,22,50.45864548057665,1.063800627567204,45.45454545454545,3,0.13636363636363635,R,S4,A0605,Ba,,11528
56893,3_F,TTAGAGCGTGTGGTAAGGC,3,19,51.46953400398121,0.05291210416264392,52.631578947368425,2,0.0,Ba_HighSpec,F,3_R,TACTACTACAACGCCCTCTATC,22,50.45864548057665,1.063800627567204,45.45454545454545,3,0.13636363636363635,R,S5,A0615,Ba,,221
56895,3_F,TTAGAGCGTGTGGTAAGGC,3,19,51.46953400398121,0.05291210416264392,52.631578947368425,2,0.0,Ba_HighSpec,F,3_R,TACTACTACAACGCCCTCTATC,22,50.45864548057665,1.063800627567204,45.45454545454545,3,0.13636363636363635,R,S6,A0706,Ba,,227
56894,3_F,TTAGAGCGTGTGGTAAGGC,3,19,51.46953400398121,0.05291210416264392,52.631578947368425,2,0.0,Ba_HighSpec,F,3_R,TACTACTACAACGCCCTCTATC,22,50.45864548057665,1.063800627567204,45.45454545454545,3,0.13636363636363635,R,S2,A0330,Ba,,238
56958,3_F,TTAGAGCGTGTGGTAAGGC,3,19,51.46953400398121,0.05291210416264392,52.631578947368425,2,0.0,Ba_HighSpec,F,3_R,TACTACTACAACGCCCTCTATC,22,50.45864548057665,1.063800627567204,45.45454545454545,3,0.13636363636363635,R,S144,BA-BaBTSeqBa007P2--xx-xxx-xxxx-021-SF,Ba,,45
56708,3_F,TTAGAGCGTGTGGTAAGGC,3,19,51.46953400398121,0.8950233051581193,52.631578947368425,2,0.0,Ba_HighSH,F,3_R,TACTACTACAACGCCCTCTATC,22,50.45864548057665,1.9059118285626797,45.45454545454545,3,0.13636363636363635,R,S6,A0706,Ba,,227