,Primer_Name_L,Seq_L,Amplicon,Primer_Length_L,Tm_L,Delta Tm_L,GC_Content_L,Length_Longest_Homopolymer_L,Percent_Homopolymer_L,exp,flank_L,Primer_Name_R,Seq_R,Primer_Length_R,Tm_R,Delta Tm_R,GC_Content_R,Length_Longest_Homopolymer_R,Percent_Homopolymer_R,flank_R,sample_id,sample_name,species,strain,n_reads
73989,35_F,TTGACAATGTTTGACAAGT,35,19,44.91854698782959,0.08223886207258603,31.578947368421048,3,0.15789473684210525,Ba_3,F,35_R,AAAGCAAGCTTAAGCACTA,19,46.69641150961264,1.8601033838556305,36.84210526315789,3,0.15789473684210525,R,S144,BA-BaBTSeqBa007P2--xx-xxx-xxxx-021-SF,Ba,,8
74097,35_F,TTGACAATGTTTGACAAGT,35,19,44.91854698782959,1.383634751756304,31.578947368421048,3,0.15789473684210525,Ba_4,F,35_R,AAAGCAAGCTTAAGCACTA,19,46.69641150961264,0.3942297700267403,36.84210526315789,3,0.15789473684210525,R,S144,BA-BaBTSeqBa007P2--xx-xxx-xxxx-021-SF,Ba,,8
74042,35_F,TTGACAATGTTTGACAAGT,35,19,44.91854698782959,1.383634751756304,31.578947368421048,3,0.15789473684210525,Ba_4,F,35_R,AAAGCAAGCTTAAGCACTA,19,46.69641150961264,0.3942297700267403,36.84210526315789,3,0.15789473684210525,R,S2,A0330,Ba,,0
74043,35_F,TTGACAATGTTTGACAAGT,35,19,44.91854698782959,1.383634751756304,31.578947368421048,3,0.15789473684210525,Ba_4,F,35_R,AAAGCAAGCTTAAGCACTA,19,46.69641150961264,0.3942297700267403,36.84210526315789,3,0.15789473684210525,R,S5,A0615,Ba,,0
74044,35_F,TTGACAATGTTTGACAAGT,35,19,44.91854698782959,1.383634751756304,31.578947368421048,3,0.15789473684210525,Ba_4,F,35_R,AAAGCAAGCTTAAGCACTA,19,46.69641150961264,0.3942297700267403,36.84210526315789,3,0.15789473684210525,R,S6,A0706,Ba,,0
74045,35_F,TTGACAATGTTTGACAAGT,35,19,44.91854698782959,1.383634751756304,31.578947368421048,3,0.15789473684210525,Ba_4,F,35_R,AAAGCAAGCTTAAGCACTA,19,46.69641150961264,0.3942297700267403,36.84210526315789,3,0.15789473684210525,R,S4,A0605,Ba,,267
73881,35_F,TTGACAATGTTTGACAAGT,35,19,44.91854698782959,0.08223886207258603,31.578947368421048,3,0.15789473684210525,Ba_2,F,35_R,AAAGCAAGCTTAAGCACTA,19,46.69641150961264,1.8601033838556305,36.84210526315789,3,0.15789473684210525,R,S144,BA-BaBTSeqBa007P2--xx-xxx-xxxx-021-SF,Ba,,8
73935,35_F,TTGACAATGTTTGACAAGT,35,19,44.91854698782959,0.08223886207258603,31.578947368421048,3,0.15789473684210525,Ba_3,F,35_R,AAAGCAAGCTTAAGCACTA,19,46.69641150961264,1.8601033838556305,36.84210526315789,3,0.15789473684210525,R,S5,A0615,Ba,,0
73936,35_F,TTGACAATGTTTGACAAGT,35,19,44.91854698782959,0.08223886207258603,31.578947368421048,3,0.15789473684210525,Ba_3,F,35_R,AAAGCAAGCTTAAGCACTA,19,46.69641150961264,1.8601033838556305,36.84210526315789,3,0.15789473684210525,R,S6,A0706,Ba,,0
73937,35_F,TTGACAATGTTTGACAAGT,35,19,44.91854698782959,0.08223886207258603,31.578947368421048,3,0.15789473684210525,Ba_3,F,35_R,AAAGCAAGCTTAAGCACTA,19,46.69641150961264,1.8601033838556305,36.84210526315789,3,0.15789473684210525,R,S4,A0605,Ba,,267
73934,35_F,TTGACAATGTTTGACAAGT,35,19,44.91854698782959,0.08223886207258603,31.578947368421048,3,0.15789473684210525,Ba_3,F,35_R,AAAGCAAGCTTAAGCACTA,19,46.69641150961264,1.8601033838556305,36.84210526315789,3,0.15789473684210525,R,S2,A0330,Ba,,0
83746,36_F,TGAATGCGAGCAGATTACC,36,19,49.73311643215061,1.4330952225335023,47.368421052631575,2,0.0,Yp_1_V2,F,36_R,TGGTCATGCGAGCGAAGAGATCA,23,58.22856199790322,7.062350343219116,52.17391304347826,2,0.0,R,S5,A0615,Ba,,14
83745,36_F,TGAATGCGAGCAGATTACC,36,19,49.73311643215061,1.4330952225335023,47.368421052631575,2,0.0,Yp_1_V2,F,36_R,TGGTCATGCGAGCGAAGAGATCA,23,58.22856199790322,7.062350343219116,52.17391304347826,2,0.0,R,S6,A0706,Ba,,25
83744,36_F,TGAATGCGAGCAGATTACC,36,19,49.73311643215061,1.4330952225335023,47.368421052631575,2,0.0,Yp_1_V2,F,36_R,TGGTCATGCGAGCGAAGAGATCA,23,58.22856199790322,7.062350343219116,52.17391304347826,2,0.0,R,S2,A0330,Ba,,6
83747,36_F,TGAATGCGAGCAGATTACC,36,19,49.73311643215061,1.4330952225335023,47.368421052631575,2,0.0,Yp_1_V2,F,36_R,TGGTCATGCGAGCGAAGAGATCA,23,58.22856199790322,7.062350343219116,52.17391304347826,2,0.0,R,S4,A0605,Ba,,4603
83608,36_F,TTGCATTTGAAAATGTAGTATGATA,36,25,47.72853544230526,0.5134117815626453,24.0,4,0.28,Ba_V45,F,36_R,CACTTCCCGTAATTGG,16,42.95647918198108,4.258644478761532,50.0,3,0.1875,R,S2,A0330,Ba,,6
83609,36_F,TTGCATTTGAAAATGTAGTATGATA,36,25,47.72853544230526,0.5134117815626453,24.0,4,0.28,Ba_V45,F,36_R,CACTTCCCGTAATTGG,16,42.95647918198108,4.258644478761532,50.0,3,0.1875,R,S6,A0706,Ba,,25
83610,36_F,TTGCATTTGAAAATGTAGTATGATA,36,25,47.72853544230526,0.5134117815626453,24.0,4,0.28,Ba_V45,F,36_R,CACTTCCCGTAATTGG,16,42.95647918198108,4.258644478761532,50.0,3,0.1875,R,S5,A0615,Ba,,14
83611,36_F,TTGCATTTGAAAATGTAGTATGATA,36,25,47.72853544230526,0.5134117815626453,24.0,4,0.28,Ba_V45,F,36_R,CACTTCCCGTAATTGG,16,42.95647918198108,4.258644478761532,50.0,3,0.1875,R,S4,A0605,Ba,,4603
83695,36_F,TTGCATTTGAAAATGTAGTATGATA,36,25,47.72853544230526,0.5134117815626453,24.0,4,0.28,Ba_V45,F,36_R,CACTTCCCGTAATTGG,16,42.95647918198108,4.258644478761532,50.0,3,0.1875,R,S144,BA-BaBTSeqBa007P2--xx-xxx-xxxx-021-SF,Ba,,654
83967,36_F,TGAATGCGAGCAGATTACC,36,19,49.73311643215061,1.691773320492075,47.368421052631575,2,0.0,Yp_1,F,36_R,TGGTCATGCGAGCGAAGAGATCA,23,58.22856199790322,6.803672245260542,52.17391304347826,2,0.0,R,S144,BA-BaBTSeqBa007P2--xx-xxx-xxxx-021-SF,Ba,,654
84016,36_F,AGGATTGTTGGCGGCGACTAA,36,21,56.495763067596734,4.498532847112337,52.38095238095239,2,0.0,Yp_2,F,36_R,GTGGTCATGCGAGCGAAG,18,53.40810332982147,1.4108731093370819,61.111111111111114,2,0.0,R,S2,A0330,Ba,,6
84017,36_F,AGGATTGTTGGCGGCGACTAA,36,21,56.495763067596734,4.498532847112337,52.38095238095239,2,0.0,Yp_2,F,36_R,GTGGTCATGCGAGCGAAG,18,53.40810332982147,1.4108731093370819,61.111111111111114,2,0.0,R,S6,A0706,Ba,,25
84018,36_F,AGGATTGTTGGCGGCGACTAA,36,21,56.495763067596734,4.498532847112337,52.38095238095239,2,0.0,Yp_2,F,36_R,GTGGTCATGCGAGCGAAG,18,53.40810332982147,1.4108731093370819,61.111111111111114,2,0.0,R,S5,A0615,Ba,,14
84019,36_F,AGGATTGTTGGCGGCGACTAA,36,21,56.495763067596734,4.498532847112337,52.38095238095239,2,0.0,Yp_2,F,36_R,GTGGTCATGCGAGCGAAG,18,53.40810332982147,1.4108731093370819,61.111111111111114,2,0.0,R,S4,A0605,Ba,,4603
83880,36_F,TGAATGCGAGCAGATTACC,36,19,49.73311643215061,1.691773320492075,47.368421052631575,2,0.0,Yp_1,F,36_R,TGGTCATGCGAGCGAAGAGATCA,23,58.22856199790322,6.803672245260542,52.17391304347826,2,0.0,R,S2,A0330,Ba,,6
83881,36_F,TGAATGCGAGCAGATTACC,36,19,49.73311643215061,1.691773320492075,47.368421052631575,2,0.0,Yp_1,F,36_R,TGGTCATGCGAGCGAAGAGATCA,23,58.22856199790322,6.803672245260542,52.17391304347826,2,0.0,R,S6,A0706,Ba,,25
83882,36_F,TGAATGCGAGCAGATTACC,36,19,49.73311643215061,1.691773320492075,47.368421052631575,2,0.0,Yp_1,F,36_R,TGGTCATGCGAGCGAAGAGATCA,23,58.22856199790322,6.803672245260542,52.17391304347826,2,0.0,R,S5,A0615,Ba,,14
83883,36_F,TGAATGCGAGCAGATTACC,36,19,49.73311643215061,1.691773320492075,47.368421052631575,2,0.0,Yp_1,F,36_R,TGGTCATGCGAGCGAAGAGATCA,23,58.22856199790322,6.803672245260542,52.17391304347826,2,0.0,R,S4,A0605,Ba,,4603
83831,36_F,TGAATGCGAGCAGATTACC,36,19,49.73311643215061,1.4330952225335023,47.368421052631575,2,0.0,Yp_1_V2,F,36_R,TGGTCATGCGAGCGAAGAGATCA,23,58.22856199790322,7.062350343219116,52.17391304347826,2,0.0,R,S144,BA-BaBTSeqBa007P2--xx-xxx-xxxx-021-SF,Ba,,654
82931,36_F,TTGCATTTGAAAATGTAGTATGATA,36,25,47.72853544230526,2.892227316548258,24.0,4,0.28,Ba_3,F,36_R,CACTTCCCGTAATTGG,16,42.95647918198108,1.8798289437759197,50.0,3,0.1875,R,S4,A0605,Ba,,4603
82930,36_F,TTGCATTTGAAAATGTAGTATGATA,36,25,47.72853544230526,2.892227316548258,24.0,4,0.28,Ba_3,F,36_R,CACTTCCCGTAATTGG,16,42.95647918198108,1.8798289437759197,50.0,3,0.1875,R,S5,A0615,Ba,,14
82929,36_F,TTGCATTTGAAAATGTAGTATGATA,36,25,47.72853544230526,2.892227316548258,24.0,4,0.28,Ba_3,F,36_R,CACTTCCCGTAATTGG,16,42.95647918198108,1.8798289437759197,50.0,3,0.1875,R,S6,A0706,Ba,,25
82928,36_F,TTGCATTTGAAAATGTAGTATGATA,36,25,47.72853544230526,2.892227316548258,24.0,4,0.28,Ba_3,F,36_R,CACTTCCCGTAATTGG,16,42.95647918198108,1.8798289437759197,50.0,3,0.1875,R,S2,A0330,Ba,,6
82879,36_F,TTGCATTTGAAAATGTAGTATGATA,36,25,47.72853544230526,2.892227316548258,24.0,4,0.28,Ba_2,F,36_R,CACTTCCCGTAATTGG,16,42.95647918198108,1.8798289437759197,50.0,3,0.1875,R,S144,BA-BaBTSeqBa007P2--xx-xxx-xxxx-021-SF,Ba,,654
83067,36_F,TTGCATTTGAAAATGTAGTATGATA,36,25,47.72853544230526,1.4263537027193678,24.0,4,0.28,Ba_4,F,36_R,CACTTCCCGTAATTGG,16,42.95647918198108,3.3457025576048096,50.0,3,0.1875,R,S4,A0605,Ba,,4603
83066,36_F,TTGCATTTGAAAATGTAGTATGATA,36,25,47.72853544230526,1.4263537027193678,24.0,4,0.28,Ba_4,F,36_R,CACTTCCCGTAATTGG,16,42.95647918198108,3.3457025576048096,50.0,3,0.1875,R,S5,A0615,Ba,,14
83064,36_F,TTGCATTTGAAAATGTAGTATGATA,36,25,47.72853544230526,1.4263537027193678,24.0,4,0.28,Ba_4,F,36_R,CACTTCCCGTAATTGG,16,42.95647918198108,3.3457025576048096,50.0,3,0.1875,R,S2,A0330,Ba,,6
83065,36_F,TTGCATTTGAAAATGTAGTATGATA,36,25,47.72853544230526,1.4263537027193678,24.0,4,0.28,Ba_4,F,36_R,CACTTCCCGTAATTGG,16,42.95647918198108,3.3457025576048096,50.0,3,0.1875,R,S6,A0706,Ba,,25
83015,36_F,TTGCATTTGAAAATGTAGTATGATA,36,25,47.72853544230526,2.892227316548258,24.0,4,0.28,Ba_3,F,36_R,CACTTCCCGTAATTGG,16,42.95647918198108,1.8798289437759197,50.0,3,0.1875,R,S144,BA-BaBTSeqBa007P2--xx-xxx-xxxx-021-SF,Ba,,654
82659,36_F,TTGCATTTGAAAATGTAGTATGATA,36,25,47.72853544230526,2.892227316548258,24.0,4,0.28,Ba_1,F,36_R,CACTTCCCGTAATTGG,16,42.95647918198108,1.8798289437759197,50.0,3,0.1875,R,S4,A0605,Ba,,4603
82658,36_F,TTGCATTTGAAAATGTAGTATGATA,36,25,47.72853544230526,2.892227316548258,24.0,4,0.28,Ba_1,F,36_R,CACTTCCCGTAATTGG,16,42.95647918198108,1.8798289437759197,50.0,3,0.1875,R,S5,A0615,Ba,,14
82657,36_F,TTGCATTTGAAAATGTAGTATGATA,36,25,47.72853544230526,2.892227316548258,24.0,4,0.28,Ba_1,F,36_R,CACTTCCCGTAATTGG,16,42.95647918198108,1.8798289437759197,50.0,3,0.1875,R,S6,A0706,Ba,,25
82656,36_F,TTGCATTTGAAAATGTAGTATGATA,36,25,47.72853544230526,2.892227316548258,24.0,4,0.28,Ba_1,F,36_R,CACTTCCCGTAATTGG,16,42.95647918198108,1.8798289437759197,50.0,3,0.1875,R,S2,A0330,Ba,,6
84103,36_F,AGGATTGTTGGCGGCGACTAA,36,21,56.495763067596734,4.498532847112337,52.38095238095239,2,0.0,Yp_2,F,36_R,GTGGTCATGCGAGCGAAG,18,53.40810332982147,1.4108731093370819,61.111111111111114,2,0.0,R,S144,BA-BaBTSeqBa007P2--xx-xxx-xxxx-021-SF,Ba,,654
82793,36_F,TTGCATTTGAAAATGTAGTATGATA,36,25,47.72853544230526,2.892227316548258,24.0,4,0.28,Ba_2,F,36_R,CACTTCCCGTAATTGG,16,42.95647918198108,1.8798289437759197,50.0,3,0.1875,R,S6,A0706,Ba,,25
82792,36_F,TTGCATTTGAAAATGTAGTATGATA,36,25,47.72853544230526,2.892227316548258,24.0,4,0.28,Ba_2,F,36_R,CACTTCCCGTAATTGG,16,42.95647918198108,1.8798289437759197,50.0,3,0.1875,R,S2,A0330,Ba,,6
82794,36_F,TTGCATTTGAAAATGTAGTATGATA,36,25,47.72853544230526,2.892227316548258,24.0,4,0.28,Ba_2,F,36_R,CACTTCCCGTAATTGG,16,42.95647918198108,1.8798289437759197,50.0,3,0.1875,R,S5,A0615,Ba,,14
82795,36_F,TTGCATTTGAAAATGTAGTATGATA,36,25,47.72853544230526,2.892227316548258,24.0,4,0.28,Ba_2,F,36_R,CACTTCCCGTAATTGG,16,42.95647918198108,1.8798289437759197,50.0,3,0.1875,R,S4,A0605,Ba,,4603
82743,36_F,TTGCATTTGAAAATGTAGTATGATA,36,25,47.72853544230526,2.892227316548258,24.0,4,0.28,Ba_1,F,36_R,CACTTCCCGTAATTGG,16,42.95647918198108,1.8798289437759197,50.0,3,0.1875,R,S144,BA-BaBTSeqBa007P2--xx-xxx-xxxx-021-SF,Ba,,654
83423,36_F,TTGCATTTGAAAATGTAGTATGATA,36,25,47.72853544230526,1.4263537027193678,24.0,4,0.28,Ba_5_V3,F,36_R,CACTTCCCGTAATTGG,16,42.95647918198108,3.3457025576048096,50.0,3,0.1875,R,S144,BA-BaBTSeqBa007P2--xx-xxx-xxxx-021-SF,Ba,,654
83339,36_F,TTGCATTTGAAAATGTAGTATGATA,36,25,47.72853544230526,1.4263537027193678,24.0,4,0.28,Ba_5_V3,F,36_R,CACTTCCCGTAATTGG,16,42.95647918198108,3.3457025576048096,50.0,3,0.1875,R,S4,A0605,Ba,,4603
83338,36_F,TTGCATTTGAAAATGTAGTATGATA,36,25,47.72853544230526,1.4263537027193678,24.0,4,0.28,Ba_5_V3,F,36_R,CACTTCCCGTAATTGG,16,42.95647918198108,3.3457025576048096,50.0,3,0.1875,R,S5,A0615,Ba,,14
83559,36_F,TTGCATTTGAAAATGTAGTATGATA,36,25,47.72853544230526,0.4854718167896479,24.0,4,0.28,Ba_6_V4,F,36_R,CACTTCCCGTAATTGG,16,42.95647918198108,4.2865844435345295,50.0,3,0.1875,R,S144,BA-BaBTSeqBa007P2--xx-xxx-xxxx-021-SF,Ba,,654
83475,36_F,TTGCATTTGAAAATGTAGTATGATA,36,25,47.72853544230526,0.4854718167896479,24.0,4,0.28,Ba_6_V4,F,36_R,CACTTCCCGTAATTGG,16,42.95647918198108,4.2865844435345295,50.0,3,0.1875,R,S4,A0605,Ba,,4603
83474,36_F,TTGCATTTGAAAATGTAGTATGATA,36,25,47.72853544230526,0.4854718167896479,24.0,4,0.28,Ba_6_V4,F,36_R,CACTTCCCGTAATTGG,16,42.95647918198108,4.2865844435345295,50.0,3,0.1875,R,S5,A0615,Ba,,14
83473,36_F,TTGCATTTGAAAATGTAGTATGATA,36,25,47.72853544230526,0.4854718167896479,24.0,4,0.28,Ba_6_V4,F,36_R,CACTTCCCGTAATTGG,16,42.95647918198108,4.2865844435345295,50.0,3,0.1875,R,S6,A0706,Ba,,25
83472,36_F,TTGCATTTGAAAATGTAGTATGATA,36,25,47.72853544230526,0.4854718167896479,24.0,4,0.28,Ba_6_V4,F,36_R,CACTTCCCGTAATTGG,16,42.95647918198108,4.2865844435345295,50.0,3,0.1875,R,S2,A0330,Ba,,6
83337,36_F,TTGCATTTGAAAATGTAGTATGATA,36,25,47.72853544230526,1.4263537027193678,24.0,4,0.28,Ba_5_V3,F,36_R,CACTTCCCGTAATTGG,16,42.95647918198108,3.3457025576048096,50.0,3,0.1875,R,S6,A0706,Ba,,25
83336,36_F,TTGCATTTGAAAATGTAGTATGATA,36,25,47.72853544230526,1.4263537027193678,24.0,4,0.28,Ba_5_V3,F,36_R,CACTTCCCGTAATTGG,16,42.95647918198108,3.3457025576048096,50.0,3,0.1875,R,S2,A0330,Ba,,6
83151,36_F,TTGCATTTGAAAATGTAGTATGATA,36,25,47.72853544230526,1.4263537027193678,24.0,4,0.28,Ba_4,F,36_R,CACTTCCCGTAATTGG,16,42.95647918198108,3.3457025576048096,50.0,3,0.1875,R,S144,BA-BaBTSeqBa007P2--xx-xxx-xxxx-021-SF,Ba,,654
83203,36_F,TTGCATTTGAAAATGTAGTATGATA,36,25,47.72853544230526,1.2560179951920458,24.0,4,0.28,Ba_5_V35,F,36_R,CACTTCCCGTAATTGG,16,42.95647918198108,3.516038265132132,50.0,3,0.1875,R,S4,A0605,Ba,,4603
83202,36_F,TTGCATTTGAAAATGTAGTATGATA,36,25,47.72853544230526,1.2560179951920458,24.0,4,0.28,Ba_5_V35,F,36_R,CACTTCCCGTAATTGG,16,42.95647918198108,3.516038265132132,50.0,3,0.1875,R,S5,A0615,Ba,,14
83201,36_F,TTGCATTTGAAAATGTAGTATGATA,36,25,47.72853544230526,1.2560179951920458,24.0,4,0.28,Ba_5_V35,F,36_R,CACTTCCCGTAATTGG,16,42.95647918198108,3.516038265132132,50.0,3,0.1875,R,S6,A0706,Ba,,25
83200,36_F,TTGCATTTGAAAATGTAGTATGATA,36,25,47.72853544230526,1.2560179951920458,24.0,4,0.28,Ba_5_V35,F,36_R,CACTTCCCGTAATTGG,16,42.95647918198108,3.516038265132132,50.0,3,0.1875,R,S2,A0330,Ba,,6
83287,36_F,TTGCATTTGAAAATGTAGTATGATA,36,25,47.72853544230526,1.2560179951920458,24.0,4,0.28,Ba_5_V35,F,36_R,CACTTCCCGTAATTGG,16,42.95647918198108,3.516038265132132,50.0,3,0.1875,R,S144,BA-BaBTSeqBa007P2--xx-xxx-xxxx-021-SF,Ba,,654
74799,37_F,TTAGAAAGATCATCCATGT,37,19,42.30148217479496,2.5348259509620448,31.578947368421048,3,0.15789473684210525,Ba_1,F,37_R,AAAAACGAGTTATTCAAGC,19,43.92695321370781,0.9093549120491956,31.578947368421048,5,0.2631578947368421,R,S6,A0706,Ba,,1
75459,37_F,TCTGGTGTTAATCCTAGTTGT,37,21,48.001127208327496,1.6989454687415986,38.095238095238095,2,0.0,Ba_5_V3,F,37_R,GTTATTCAAGCTCTGGT,17,42.47162292255632,3.830558817029569,41.17647058823529,2,0.0,R,S6,A0706,Ba,,1
75460,37_F,TCTGGTGTTAATCCTAGTTGT,37,21,48.001127208327496,1.6989454687415986,38.095238095238095,2,0.0,Ba_5_V3,F,37_R,GTTATTCAAGCTCTGGT,17,42.47162292255632,3.830558817029569,41.17647058823529,2,0.0,R,S2,A0330,Ba,,0
75461,37_F,TCTGGTGTTAATCCTAGTTGT,37,21,48.001127208327496,1.6989454687415986,38.095238095238095,2,0.0,Ba_5_V3,F,37_R,GTTATTCAAGCTCTGGT,17,42.47162292255632,3.830558817029569,41.17647058823529,2,0.0,R,S5,A0615,Ba,,2
75458,37_F,TCTGGTGTTAATCCTAGTTGT,37,21,48.001127208327496,1.6989454687415986,38.095238095238095,2,0.0,Ba_5_V3,F,37_R,GTTATTCAAGCTCTGGT,17,42.47162292255632,3.830558817029569,41.17647058823529,2,0.0,R,S4,A0605,Ba,,851
75402,37_F,TCTGGTGTTAATCCTAGTTGT,37,21,48.001127208327496,1.5286097612142768,38.095238095238095,2,0.0,Ba_5_V35,F,37_R,GTTATTCAAGCTCTGGT,17,42.47162292255632,4.000894524556891,41.17647058823529,2,0.0,R,S144,BA-BaBTSeqBa007P2--xx-xxx-xxxx-021-SF,Ba,,265
75666,37_F,TCTGGTGTTAATCCTAGTTGT,37,21,48.001127208327496,0.7580635828118787,38.095238095238095,2,0.0,Ba_6_V4,F,37_R,GTTATTCAAGCTCTGGT,17,42.47162292255632,4.771440702959289,41.17647058823529,2,0.0,R,S144,BA-BaBTSeqBa007P2--xx-xxx-xxxx-021-SF,Ba,,265
75534,37_F,TCTGGTGTTAATCCTAGTTGT,37,21,48.001127208327496,1.6989454687415986,38.095238095238095,2,0.0,Ba_5_V3,F,37_R,GTTATTCAAGCTCTGGT,17,42.47162292255632,3.830558817029569,41.17647058823529,2,0.0,R,S144,BA-BaBTSeqBa007P2--xx-xxx-xxxx-021-SF,Ba,,265
75593,37_F,TCTGGTGTTAATCCTAGTTGT,37,21,48.001127208327496,0.7580635828118787,38.095238095238095,2,0.0,Ba_6_V4,F,37_R,GTTATTCAAGCTCTGGT,17,42.47162292255632,4.771440702959289,41.17647058823529,2,0.0,R,S5,A0615,Ba,,2
75592,37_F,TCTGGTGTTAATCCTAGTTGT,37,21,48.001127208327496,0.7580635828118787,38.095238095238095,2,0.0,Ba_6_V4,F,37_R,GTTATTCAAGCTCTGGT,17,42.47162292255632,4.771440702959289,41.17647058823529,2,0.0,R,S2,A0330,Ba,,0
75590,37_F,TCTGGTGTTAATCCTAGTTGT,37,21,48.001127208327496,0.7580635828118787,38.095238095238095,2,0.0,Ba_6_V4,F,37_R,GTTATTCAAGCTCTGGT,17,42.47162292255632,4.771440702959289,41.17647058823529,2,0.0,R,S4,A0605,Ba,,851
75591,37_F,TCTGGTGTTAATCCTAGTTGT,37,21,48.001127208327496,0.7580635828118787,38.095238095238095,2,0.0,Ba_6_V4,F,37_R,GTTATTCAAGCTCTGGT,17,42.47162292255632,4.771440702959289,41.17647058823529,2,0.0,R,S6,A0706,Ba,,1
75138,37_F,TTAGAAAGATCATCCATGT,37,19,42.30148217479496,2.5348259509620448,31.578947368421048,3,0.15789473684210525,Ba_3,F,37_R,AAAAACGAGTTATTCAAGC,19,43.92695321370781,0.9093549120491956,31.578947368421048,5,0.2631578947368421,R,S144,BA-BaBTSeqBa007P2--xx-xxx-xxxx-021-SF,Ba,,265
75006,37_F,TTAGAAAGATCATCCATGT,37,19,42.30148217479496,2.5348259509620448,31.578947368421048,3,0.15789473684210525,Ba_2,F,37_R,AAAAACGAGTTATTCAAGC,19,43.92695321370781,0.9093549120491956,31.578947368421048,5,0.2631578947368421,R,S144,BA-BaBTSeqBa007P2--xx-xxx-xxxx-021-SF,Ba,,265
75062,37_F,TTAGAAAGATCATCCATGT,37,19,42.30148217479496,2.5348259509620448,31.578947368421048,3,0.15789473684210525,Ba_3,F,37_R,AAAAACGAGTTATTCAAGC,19,43.92695321370781,0.9093549120491956,31.578947368421048,5,0.2631578947368421,R,S4,A0605,Ba,,851
75063,37_F,TTAGAAAGATCATCCATGT,37,19,42.30148217479496,2.5348259509620448,31.578947368421048,3,0.15789473684210525,Ba_3,F,37_R,AAAAACGAGTTATTCAAGC,19,43.92695321370781,0.9093549120491956,31.578947368421048,5,0.2631578947368421,R,S6,A0706,Ba,,1
75064,37_F,TTAGAAAGATCATCCATGT,37,19,42.30148217479496,2.5348259509620448,31.578947368421048,3,0.15789473684210525,Ba_3,F,37_R,AAAAACGAGTTATTCAAGC,19,43.92695321370781,0.9093549120491956,31.578947368421048,5,0.2631578947368421,R,S2,A0330,Ba,,0
75065,37_F,TTAGAAAGATCATCCATGT,37,19,42.30148217479496,2.5348259509620448,31.578947368421048,3,0.15789473684210525,Ba_3,F,37_R,AAAAACGAGTTATTCAAGC,19,43.92695321370781,0.9093549120491956,31.578947368421048,5,0.2631578947368421,R,S5,A0615,Ba,,2
75270,37_F,TCTGGTGTTAATCCTAGTTGT,37,21,48.001127208327496,1.6989454687415986,38.095238095238095,2,0.0,Ba_4,F,37_R,GTTATTCAAGCTCTGGT,17,42.47162292255632,3.830558817029569,41.17647058823529,2,0.0,R,S144,BA-BaBTSeqBa007P2--xx-xxx-xxxx-021-SF,Ba,,265
75326,37_F,TCTGGTGTTAATCCTAGTTGT,37,21,48.001127208327496,1.5286097612142768,38.095238095238095,2,0.0,Ba_5_V35,F,37_R,GTTATTCAAGCTCTGGT,17,42.47162292255632,4.000894524556891,41.17647058823529,2,0.0,R,S4,A0605,Ba,,851
75327,37_F,TCTGGTGTTAATCCTAGTTGT,37,21,48.001127208327496,1.5286097612142768,38.095238095238095,2,0.0,Ba_5_V35,F,37_R,GTTATTCAAGCTCTGGT,17,42.47162292255632,4.000894524556891,41.17647058823529,2,0.0,R,S6,A0706,Ba,,1
75328,37_F,TCTGGTGTTAATCCTAGTTGT,37,21,48.001127208327496,1.5286097612142768,38.095238095238095,2,0.0,Ba_5_V35,F,37_R,GTTATTCAAGCTCTGGT,17,42.47162292255632,4.000894524556891,41.17647058823529,2,0.0,R,S2,A0330,Ba,,0
75329,37_F,TCTGGTGTTAATCCTAGTTGT,37,21,48.001127208327496,1.5286097612142768,38.095238095238095,2,0.0,Ba_5_V35,F,37_R,GTTATTCAAGCTCTGGT,17,42.47162292255632,4.000894524556891,41.17647058823529,2,0.0,R,S5,A0615,Ba,,2