,Primer_Name_L,Seq_L,Amplicon,Primer_Length_L,Tm_L,Delta Tm_L,GC_Content_L,Length_Longest_Homopolymer_L,Percent_Homopolymer_L,exp,flank_L,Primer_Name_R,Seq_R,Primer_Length_R,Tm_R,Delta Tm_R,GC_Content_R,Length_Longest_Homopolymer_R,Percent_Homopolymer_R,flank_R,sample_id,sample_name,species,strain,n_reads
95753,42_F,AGACAACCACCCGACATCAAGA,42,22,55.63768124891493,4.212791496272247,50.0,3,0.13636363636363635,Yp_1,F,42_R,GCGCACAGGAAGAACATATC,20,51.34339450278162,0.08149524986106371,50.0,2,0.0,R,S144,BA-BaBTSeqBa007P2--xx-xxx-xxxx-021-SF,Ba,,0
95828,42_F,CAACCACCCGACATCAAG,42,18,50.08246607115001,1.9147641493343808,55.555555555555564,3,0.16666666666666666,Yp_2,F,42_R,GAGCGTGGCGCACAGGAAGAAC,22,60.854465417143324,8.857235196658939,63.63636363636363,2,0.0,R,S144,BA-BaBTSeqBa007P2--xx-xxx-xxxx-021-SF,Ba,,0
95678,42_F,AGACAACCACCCGACATCAAGA,42,22,55.63768124891493,4.471469594230818,50.0,3,0.13636363636363635,Yp_1_V2,F,42_R,GCGCACAGGAAGAACATATC,20,51.34339450278162,0.17718284809750884,50.0,2,0.0,R,S144,BA-BaBTSeqBa007P2--xx-xxx-xxxx-021-SF,Ba,,0
79694,43_F,TGCACGTATTCTAAACCAG,43,19,47.07684748159989,0.1382761791427285,42.105263157894726,3,0.15789473684210525,Ba_V45,F,43_R,CGCCAGAGACACCGAA,16,50.38359159381628,3.1684679330736643,62.5,2,0.0,R,S6,A0706,Ba,,1405
79692,43_F,TGCACGTATTCTAAACCAG,43,19,47.07684748159989,0.1382761791427285,42.105263157894726,3,0.15789473684210525,Ba_V45,F,43_R,CGCCAGAGACACCGAA,16,50.38359159381628,3.1684679330736643,62.5,2,0.0,R,S5,A0615,Ba,,424
79693,43_F,TGCACGTATTCTAAACCAG,43,19,47.07684748159989,0.1382761791427285,42.105263157894726,3,0.15789473684210525,Ba_V45,F,43_R,CGCCAGAGACACCGAA,16,50.38359159381628,3.1684679330736643,62.5,2,0.0,R,S2,A0330,Ba,,839
79695,43_F,TGCACGTATTCTAAACCAG,43,19,47.07684748159989,0.1382761791427285,42.105263157894726,3,0.15789473684210525,Ba_V45,F,43_R,CGCCAGAGACACCGAA,16,50.38359159381628,3.1684679330736643,62.5,2,0.0,R,S4,A0605,Ba,,28501
79753,43_F,TGCACGTATTCTAAACCAG,43,19,47.07684748159989,0.1382761791427285,42.105263157894726,3,0.15789473684210525,Ba_V45,F,43_R,CGCCAGAGACACCGAA,16,50.38359159381628,3.1684679330736643,62.5,2,0.0,R,S144,BA-BaBTSeqBa007P2--xx-xxx-xxxx-021-SF,Ba,,343
79331,43_F,CATCTTCCACCTTTACC,43,17,42.94116035155247,3.361021388033421,47.058823529411754,3,0.17647058823529413,Ba_4,F,43_R,CGCAGCATAAAGACGGAA,18,49.937573298501434,3.635391558915544,50.0,3,0.16666666666666666,R,S4,A0605,Ba,,28501
79330,43_F,CATCTTCCACCTTTACC,43,17,42.94116035155247,3.361021388033421,47.058823529411754,3,0.17647058823529413,Ba_4,F,43_R,CGCAGCATAAAGACGGAA,18,49.937573298501434,3.635391558915544,50.0,3,0.16666666666666666,R,S6,A0706,Ba,,1405
79329,43_F,CATCTTCCACCTTTACC,43,17,42.94116035155247,3.361021388033421,47.058823529411754,3,0.17647058823529413,Ba_4,F,43_R,CGCAGCATAAAGACGGAA,18,49.937573298501434,3.635391558915544,50.0,3,0.16666666666666666,R,S2,A0330,Ba,,839
79328,43_F,CATCTTCCACCTTTACC,43,17,42.94116035155247,3.361021388033421,47.058823529411754,3,0.17647058823529413,Ba_4,F,43_R,CGCAGCATAAAGACGGAA,18,49.937573298501434,3.635391558915544,50.0,3,0.16666666666666666,R,S5,A0615,Ba,,424
79298,43_F,TGCACGTATTCTAAACCAG,43,19,47.07684748159989,2.240539355842884,42.105263157894726,3,0.15789473684210525,Ba_3,F,43_R,AGCATAAAGACGGAAAAC,18,44.66343798345577,0.17287014230123532,38.888888888888886,4,0.3888888888888889,R,S144,BA-BaBTSeqBa007P2--xx-xxx-xxxx-021-SF,Ba,,343
79389,43_F,CATCTTCCACCTTTACC,43,17,42.94116035155247,3.361021388033421,47.058823529411754,3,0.17647058823529413,Ba_4,F,43_R,CGCAGCATAAAGACGGAA,18,49.937573298501434,3.635391558915544,50.0,3,0.16666666666666666,R,S144,BA-BaBTSeqBa007P2--xx-xxx-xxxx-021-SF,Ba,,343
79480,43_F,TGCACGTATTCTAAACCAG,43,19,47.07684748159989,0.6043300344866722,42.105263157894726,3,0.15789473684210525,Ba_5_V35,F,43_R,AGCATAAAGACGGAAAAC,18,44.66343798345577,1.8090794636574472,38.888888888888886,4,0.3888888888888889,R,S144,BA-BaBTSeqBa007P2--xx-xxx-xxxx-021-SF,Ba,,343
79513,43_F,CATCTTCCACCTTTACC,43,17,42.94116035155247,3.361021388033421,47.058823529411754,3,0.17647058823529413,Ba_5_V3,F,43_R,CGCAGCATAAAGACGGAA,18,49.937573298501434,3.635391558915544,50.0,3,0.16666666666666666,R,S4,A0605,Ba,,28501
79512,43_F,CATCTTCCACCTTTACC,43,17,42.94116035155247,3.361021388033421,47.058823529411754,3,0.17647058823529413,Ba_5_V3,F,43_R,CGCAGCATAAAGACGGAA,18,49.937573298501434,3.635391558915544,50.0,3,0.16666666666666666,R,S6,A0706,Ba,,1405
79511,43_F,CATCTTCCACCTTTACC,43,17,42.94116035155247,3.361021388033421,47.058823529411754,3,0.17647058823529413,Ba_5_V3,F,43_R,CGCAGCATAAAGACGGAA,18,49.937573298501434,3.635391558915544,50.0,3,0.16666666666666666,R,S2,A0330,Ba,,839
79510,43_F,CATCTTCCACCTTTACC,43,17,42.94116035155247,3.361021388033421,47.058823529411754,3,0.17647058823529413,Ba_5_V3,F,43_R,CGCAGCATAAAGACGGAA,18,49.937573298501434,3.635391558915544,50.0,3,0.16666666666666666,R,S5,A0615,Ba,,424
79419,43_F,TGCACGTATTCTAAACCAG,43,19,47.07684748159989,0.6043300344866722,42.105263157894726,3,0.15789473684210525,Ba_5_V35,F,43_R,AGCATAAAGACGGAAAAC,18,44.66343798345577,1.8090794636574472,38.888888888888886,4,0.3888888888888889,R,S5,A0615,Ba,,424
79420,43_F,TGCACGTATTCTAAACCAG,43,19,47.07684748159989,0.6043300344866722,42.105263157894726,3,0.15789473684210525,Ba_5_V35,F,43_R,AGCATAAAGACGGAAAAC,18,44.66343798345577,1.8090794636574472,38.888888888888886,4,0.3888888888888889,R,S2,A0330,Ba,,839
79421,43_F,TGCACGTATTCTAAACCAG,43,19,47.07684748159989,0.6043300344866722,42.105263157894726,3,0.15789473684210525,Ba_5_V35,F,43_R,AGCATAAAGACGGAAAAC,18,44.66343798345577,1.8090794636574472,38.888888888888886,4,0.3888888888888889,R,S6,A0706,Ba,,1405
79422,43_F,TGCACGTATTCTAAACCAG,43,19,47.07684748159989,0.6043300344866722,42.105263157894726,3,0.15789473684210525,Ba_5_V35,F,43_R,AGCATAAAGACGGAAAAC,18,44.66343798345577,1.8090794636574472,38.888888888888886,4,0.3888888888888889,R,S4,A0605,Ba,,28501
79116,43_F,TGCACGTATTCTAAACCAG,43,19,47.07684748159989,2.240539355842884,42.105263157894726,3,0.15789473684210525,Ba_1,F,43_R,AGCATAAAGACGGAAAAC,18,44.66343798345577,0.17287014230123532,38.888888888888886,4,0.3888888888888889,R,S144,BA-BaBTSeqBa007P2--xx-xxx-xxxx-021-SF,Ba,,343
79058,43_F,TGCACGTATTCTAAACCAG,43,19,47.07684748159989,2.240539355842884,42.105263157894726,3,0.15789473684210525,Ba_1,F,43_R,AGCATAAAGACGGAAAAC,18,44.66343798345577,0.17287014230123532,38.888888888888886,4,0.3888888888888889,R,S4,A0605,Ba,,28501
79571,43_F,CATCTTCCACCTTTACC,43,17,42.94116035155247,3.361021388033421,47.058823529411754,3,0.17647058823529413,Ba_5_V3,F,43_R,CGCAGCATAAAGACGGAA,18,49.937573298501434,3.635391558915544,50.0,3,0.16666666666666666,R,S144,BA-BaBTSeqBa007P2--xx-xxx-xxxx-021-SF,Ba,,343
79057,43_F,TGCACGTATTCTAAACCAG,43,19,47.07684748159989,2.240539355842884,42.105263157894726,3,0.15789473684210525,Ba_1,F,43_R,AGCATAAAGACGGAAAAC,18,44.66343798345577,0.17287014230123532,38.888888888888886,4,0.3888888888888889,R,S6,A0706,Ba,,1405
79056,43_F,TGCACGTATTCTAAACCAG,43,19,47.07684748159989,2.240539355842884,42.105263157894726,3,0.15789473684210525,Ba_1,F,43_R,AGCATAAAGACGGAAAAC,18,44.66343798345577,0.17287014230123532,38.888888888888886,4,0.3888888888888889,R,S2,A0330,Ba,,839
79055,43_F,TGCACGTATTCTAAACCAG,43,19,47.07684748159989,2.240539355842884,42.105263157894726,3,0.15789473684210525,Ba_1,F,43_R,AGCATAAAGACGGAAAAC,18,44.66343798345577,0.17287014230123532,38.888888888888886,4,0.3888888888888889,R,S5,A0615,Ba,,424
79207,43_F,TGCACGTATTCTAAACCAG,43,19,47.07684748159989,2.240539355842884,42.105263157894726,3,0.15789473684210525,Ba_2,F,43_R,AGCATAAAGACGGAAAAC,18,44.66343798345577,0.17287014230123532,38.888888888888886,4,0.3888888888888889,R,S144,BA-BaBTSeqBa007P2--xx-xxx-xxxx-021-SF,Ba,,343
79240,43_F,TGCACGTATTCTAAACCAG,43,19,47.07684748159989,2.240539355842884,42.105263157894726,3,0.15789473684210525,Ba_3,F,43_R,AGCATAAAGACGGAAAAC,18,44.66343798345577,0.17287014230123532,38.888888888888886,4,0.3888888888888889,R,S4,A0605,Ba,,28501
79239,43_F,TGCACGTATTCTAAACCAG,43,19,47.07684748159989,2.240539355842884,42.105263157894726,3,0.15789473684210525,Ba_3,F,43_R,AGCATAAAGACGGAAAAC,18,44.66343798345577,0.17287014230123532,38.888888888888886,4,0.3888888888888889,R,S6,A0706,Ba,,1405
79238,43_F,TGCACGTATTCTAAACCAG,43,19,47.07684748159989,2.240539355842884,42.105263157894726,3,0.15789473684210525,Ba_3,F,43_R,AGCATAAAGACGGAAAAC,18,44.66343798345577,0.17287014230123532,38.888888888888886,4,0.3888888888888889,R,S2,A0330,Ba,,839
79237,43_F,TGCACGTATTCTAAACCAG,43,19,47.07684748159989,2.240539355842884,42.105263157894726,3,0.15789473684210525,Ba_3,F,43_R,AGCATAAAGACGGAAAAC,18,44.66343798345577,0.17287014230123532,38.888888888888886,4,0.3888888888888889,R,S5,A0615,Ba,,424
79149,43_F,TGCACGTATTCTAAACCAG,43,19,47.07684748159989,2.240539355842884,42.105263157894726,3,0.15789473684210525,Ba_2,F,43_R,AGCATAAAGACGGAAAAC,18,44.66343798345577,0.17287014230123532,38.888888888888886,4,0.3888888888888889,R,S4,A0605,Ba,,28501
79148,43_F,TGCACGTATTCTAAACCAG,43,19,47.07684748159989,2.240539355842884,42.105263157894726,3,0.15789473684210525,Ba_2,F,43_R,AGCATAAAGACGGAAAAC,18,44.66343798345577,0.17287014230123532,38.888888888888886,4,0.3888888888888889,R,S6,A0706,Ba,,1405
79147,43_F,TGCACGTATTCTAAACCAG,43,19,47.07684748159989,2.240539355842884,42.105263157894726,3,0.15789473684210525,Ba_2,F,43_R,AGCATAAAGACGGAAAAC,18,44.66343798345577,0.17287014230123532,38.888888888888886,4,0.3888888888888889,R,S2,A0330,Ba,,839
79146,43_F,TGCACGTATTCTAAACCAG,43,19,47.07684748159989,2.240539355842884,42.105263157894726,3,0.15789473684210525,Ba_2,F,43_R,AGCATAAAGACGGAAAAC,18,44.66343798345577,0.17287014230123532,38.888888888888886,4,0.3888888888888889,R,S5,A0615,Ba,,424
79601,43_F,TGCACGTATTCTAAACCAG,43,19,47.07684748159989,0.16621614391572592,42.105263157894726,3,0.15789473684210525,Ba_6_V4,F,43_R,CGCCAGAGACACCGAA,16,50.38359159381628,3.140527968300667,62.5,2,0.0,R,S5,A0615,Ba,,424
79602,43_F,TGCACGTATTCTAAACCAG,43,19,47.07684748159989,0.16621614391572592,42.105263157894726,3,0.15789473684210525,Ba_6_V4,F,43_R,CGCCAGAGACACCGAA,16,50.38359159381628,3.140527968300667,62.5,2,0.0,R,S2,A0330,Ba,,839
79603,43_F,TGCACGTATTCTAAACCAG,43,19,47.07684748159989,0.16621614391572592,42.105263157894726,3,0.15789473684210525,Ba_6_V4,F,43_R,CGCCAGAGACACCGAA,16,50.38359159381628,3.140527968300667,62.5,2,0.0,R,S6,A0706,Ba,,1405
79604,43_F,TGCACGTATTCTAAACCAG,43,19,47.07684748159989,0.16621614391572592,42.105263157894726,3,0.15789473684210525,Ba_6_V4,F,43_R,CGCCAGAGACACCGAA,16,50.38359159381628,3.140527968300667,62.5,2,0.0,R,S4,A0605,Ba,,28501
79662,43_F,TGCACGTATTCTAAACCAG,43,19,47.07684748159989,0.16621614391572592,42.105263157894726,3,0.15789473684210525,Ba_6_V4,F,43_R,CGCCAGAGACACCGAA,16,50.38359159381628,3.140527968300667,62.5,2,0.0,R,S144,BA-BaBTSeqBa007P2--xx-xxx-xxxx-021-SF,Ba,,343
79998,44_F,GTTGTTTGGTAAAGGGATA,44,19,44.04786230111904,0.7884458246379609,36.84210526315789,3,0.4736842105263158,Ba_3,F,44_R,ACAGAAGAGTTCAATCCAAA,20,46.48542360630887,1.6491154805518704,35.0,3,0.15,R,S2,A0330,Ba,,21
79997,44_F,GTTGTTTGGTAAAGGGATA,44,19,44.04786230111904,0.7884458246379609,36.84210526315789,3,0.4736842105263158,Ba_3,F,44_R,ACAGAAGAGTTCAATCCAAA,20,46.48542360630887,1.6491154805518704,35.0,3,0.15,R,S6,A0706,Ba,,89
79996,44_F,GTTGTTTGGTAAAGGGATA,44,19,44.04786230111904,0.7884458246379609,36.84210526315789,3,0.4736842105263158,Ba_3,F,44_R,ACAGAAGAGTTCAATCCAAA,20,46.48542360630887,1.6491154805518704,35.0,3,0.15,R,S5,A0615,Ba,,81
79995,44_F,GTTGTTTGGTAAAGGGATA,44,19,44.04786230111904,0.7884458246379609,36.84210526315789,3,0.4736842105263158,Ba_3,F,44_R,ACAGAAGAGTTCAATCCAAA,20,46.48542360630887,1.6491154805518704,35.0,3,0.15,R,S4,A0605,Ba,,9547
80074,44_F,GTTGTTTGGTAAAGGGATA,44,19,44.04786230111904,0.7884458246379609,36.84210526315789,3,0.4736842105263158,Ba_3,F,44_R,ACAGAAGAGTTCAATCCAAA,20,46.48542360630887,1.6491154805518704,35.0,3,0.15,R,S144,BA-BaBTSeqBa007P2--xx-xxx-xxxx-021-SF,Ba,,927
80104,44_F,GTTGTTTGGTAAAGGGATA,44,19,44.04786230111904,2.254319438466851,36.84210526315789,3,0.4736842105263158,Ba_4,F,44_R,ACAGAAGAGTTCAATCCAAA,20,46.48542360630887,0.18324186672298026,35.0,3,0.15,R,S2,A0330,Ba,,21
80103,44_F,GTTGTTTGGTAAAGGGATA,44,19,44.04786230111904,2.254319438466851,36.84210526315789,3,0.4736842105263158,Ba_4,F,44_R,ACAGAAGAGTTCAATCCAAA,20,46.48542360630887,0.18324186672298026,35.0,3,0.15,R,S6,A0706,Ba,,89
80102,44_F,GTTGTTTGGTAAAGGGATA,44,19,44.04786230111904,2.254319438466851,36.84210526315789,3,0.4736842105263158,Ba_4,F,44_R,ACAGAAGAGTTCAATCCAAA,20,46.48542360630887,0.18324186672298026,35.0,3,0.15,R,S5,A0615,Ba,,81
80101,44_F,GTTGTTTGGTAAAGGGATA,44,19,44.04786230111904,2.254319438466851,36.84210526315789,3,0.4736842105263158,Ba_4,F,44_R,ACAGAAGAGTTCAATCCAAA,20,46.48542360630887,0.18324186672298026,35.0,3,0.15,R,S4,A0605,Ba,,9547
79862,44_F,GTTGTTTGGTAAAGGGATA,44,19,44.04786230111904,0.7884458246379609,36.84210526315789,3,0.4736842105263158,Ba_1,F,44_R,ACAGAAGAGTTCAATCCAAA,20,46.48542360630887,1.6491154805518704,35.0,3,0.15,R,S144,BA-BaBTSeqBa007P2--xx-xxx-xxxx-021-SF,Ba,,927
79786,44_F,GTTGTTTGGTAAAGGGATA,44,19,44.04786230111904,0.7884458246379609,36.84210526315789,3,0.4736842105263158,Ba_1,F,44_R,ACAGAAGAGTTCAATCCAAA,20,46.48542360630887,1.6491154805518704,35.0,3,0.15,R,S2,A0330,Ba,,21
79785,44_F,GTTGTTTGGTAAAGGGATA,44,19,44.04786230111904,0.7884458246379609,36.84210526315789,3,0.4736842105263158,Ba_1,F,44_R,ACAGAAGAGTTCAATCCAAA,20,46.48542360630887,1.6491154805518704,35.0,3,0.15,R,S6,A0706,Ba,,89
79784,44_F,GTTGTTTGGTAAAGGGATA,44,19,44.04786230111904,0.7884458246379609,36.84210526315789,3,0.4736842105263158,Ba_1,F,44_R,ACAGAAGAGTTCAATCCAAA,20,46.48542360630887,1.6491154805518704,35.0,3,0.15,R,S5,A0615,Ba,,81
79783,44_F,GTTGTTTGGTAAAGGGATA,44,19,44.04786230111904,0.7884458246379609,36.84210526315789,3,0.4736842105263158,Ba_1,F,44_R,ACAGAAGAGTTCAATCCAAA,20,46.48542360630887,1.6491154805518704,35.0,3,0.15,R,S4,A0605,Ba,,9547
80210,44_F,GTTGTTTGGTAAAGGGATA,44,19,44.04786230111904,2.4246551459941728,36.84210526315789,3,0.4736842105263158,Ba_5_V35,F,44_R,ACAGAAGAGTTCAATCCAAA,20,46.48542360630887,0.01290615919565852,35.0,3,0.15,R,S2,A0330,Ba,,21
79892,44_F,GTTGTTTGGTAAAGGGATA,44,19,44.04786230111904,0.7884458246379609,36.84210526315789,3,0.4736842105263158,Ba_2,F,44_R,ACAGAAGAGTTCAATCCAAA,20,46.48542360630887,1.6491154805518704,35.0,3,0.15,R,S2,A0330,Ba,,21
79891,44_F,GTTGTTTGGTAAAGGGATA,44,19,44.04786230111904,0.7884458246379609,36.84210526315789,3,0.4736842105263158,Ba_2,F,44_R,ACAGAAGAGTTCAATCCAAA,20,46.48542360630887,1.6491154805518704,35.0,3,0.15,R,S6,A0706,Ba,,89
79890,44_F,GTTGTTTGGTAAAGGGATA,44,19,44.04786230111904,0.7884458246379609,36.84210526315789,3,0.4736842105263158,Ba_2,F,44_R,ACAGAAGAGTTCAATCCAAA,20,46.48542360630887,1.6491154805518704,35.0,3,0.15,R,S5,A0615,Ba,,81
79889,44_F,GTTGTTTGGTAAAGGGATA,44,19,44.04786230111904,0.7884458246379609,36.84210526315789,3,0.4736842105263158,Ba_2,F,44_R,ACAGAAGAGTTCAATCCAAA,20,46.48542360630887,1.6491154805518704,35.0,3,0.15,R,S4,A0605,Ba,,9547
79968,44_F,GTTGTTTGGTAAAGGGATA,44,19,44.04786230111904,0.7884458246379609,36.84210526315789,3,0.4736842105263158,Ba_2,F,44_R,ACAGAAGAGTTCAATCCAAA,20,46.48542360630887,1.6491154805518704,35.0,3,0.15,R,S144,BA-BaBTSeqBa007P2--xx-xxx-xxxx-021-SF,Ba,,927
80420,44_F,GTTGTTTGGTAAAGGGATA,44,19,44.04786230111904,3.1952013243965713,36.84210526315789,3,0.4736842105263158,Ba_6_V4,F,44_R,ACAGAAGAGTTCAATCCAAA,20,46.48542360630887,0.7576400192067396,35.0,3,0.15,R,S5,A0615,Ba,,81
80421,44_F,GTTGTTTGGTAAAGGGATA,44,19,44.04786230111904,3.1952013243965713,36.84210526315789,3,0.4736842105263158,Ba_6_V4,F,44_R,ACAGAAGAGTTCAATCCAAA,20,46.48542360630887,0.7576400192067396,35.0,3,0.15,R,S6,A0706,Ba,,89
80422,44_F,GTTGTTTGGTAAAGGGATA,44,19,44.04786230111904,3.1952013243965713,36.84210526315789,3,0.4736842105263158,Ba_6_V4,F,44_R,ACAGAAGAGTTCAATCCAAA,20,46.48542360630887,0.7576400192067396,35.0,3,0.15,R,S2,A0330,Ba,,21
80419,44_F,GTTGTTTGGTAAAGGGATA,44,19,44.04786230111904,3.1952013243965713,36.84210526315789,3,0.4736842105263158,Ba_6_V4,F,44_R,ACAGAAGAGTTCAATCCAAA,20,46.48542360630887,0.7576400192067396,35.0,3,0.15,R,S4,A0605,Ba,,9547
80392,44_F,GTTGTTTGGTAAAGGGATA,44,19,44.04786230111904,2.254319438466851,36.84210526315789,3,0.4736842105263158,Ba_5_V3,F,44_R,ACAGAAGAGTTCAATCCAAA,20,46.48542360630887,0.18324186672298026,35.0,3,0.15,R,S144,BA-BaBTSeqBa007P2--xx-xxx-xxxx-021-SF,Ba,,927
80313,44_F,GTTGTTTGGTAAAGGGATA,44,19,44.04786230111904,2.254319438466851,36.84210526315789,3,0.4736842105263158,Ba_5_V3,F,44_R,ACAGAAGAGTTCAATCCAAA,20,46.48542360630887,0.18324186672298026,35.0,3,0.15,R,S4,A0605,Ba,,9547
80315,44_F,GTTGTTTGGTAAAGGGATA,44,19,44.04786230111904,2.254319438466851,36.84210526315789,3,0.4736842105263158,Ba_5_V3,F,44_R,ACAGAAGAGTTCAATCCAAA,20,46.48542360630887,0.18324186672298026,35.0,3,0.15,R,S6,A0706,Ba,,89
80316,44_F,GTTGTTTGGTAAAGGGATA,44,19,44.04786230111904,2.254319438466851,36.84210526315789,3,0.4736842105263158,Ba_5_V3,F,44_R,ACAGAAGAGTTCAATCCAAA,20,46.48542360630887,0.18324186672298026,35.0,3,0.15,R,S2,A0330,Ba,,21
80314,44_F,GTTGTTTGGTAAAGGGATA,44,19,44.04786230111904,2.254319438466851,36.84210526315789,3,0.4736842105263158,Ba_5_V3,F,44_R,ACAGAAGAGTTCAATCCAAA,20,46.48542360630887,0.18324186672298026,35.0,3,0.15,R,S5,A0615,Ba,,81
80286,44_F,GTTGTTTGGTAAAGGGATA,44,19,44.04786230111904,2.4246551459941728,36.84210526315789,3,0.4736842105263158,Ba_5_V35,F,44_R,ACAGAAGAGTTCAATCCAAA,20,46.48542360630887,0.01290615919565852,35.0,3,0.15,R,S144,BA-BaBTSeqBa007P2--xx-xxx-xxxx-021-SF,Ba,,927
80604,44_F,GTTGTTTGGTAAAGGGATA,44,19,44.04786230111904,3.167261359623573,36.84210526315789,3,0.4736842105263158,Ba_V45,F,44_R,ACAGAAGAGTTCAATCCAAA,20,46.48542360630887,0.7297000544337422,35.0,3,0.15,R,S144,BA-BaBTSeqBa007P2--xx-xxx-xxxx-021-SF,Ba,,927
80180,44_F,GTTGTTTGGTAAAGGGATA,44,19,44.04786230111904,2.254319438466851,36.84210526315789,3,0.4736842105263158,Ba_4,F,44_R,ACAGAAGAGTTCAATCCAAA,20,46.48542360630887,0.18324186672298026,35.0,3,0.15,R,S144,BA-BaBTSeqBa007P2--xx-xxx-xxxx-021-SF,Ba,,927
80209,44_F,GTTGTTTGGTAAAGGGATA,44,19,44.04786230111904,2.4246551459941728,36.84210526315789,3,0.4736842105263158,Ba_5_V35,F,44_R,ACAGAAGAGTTCAATCCAAA,20,46.48542360630887,0.01290615919565852,35.0,3,0.15,R,S6,A0706,Ba,,89
80208,44_F,GTTGTTTGGTAAAGGGATA,44,19,44.04786230111904,2.4246551459941728,36.84210526315789,3,0.4736842105263158,Ba_5_V35,F,44_R,ACAGAAGAGTTCAATCCAAA,20,46.48542360630887,0.01290615919565852,35.0,3,0.15,R,S5,A0615,Ba,,81
80207,44_F,GTTGTTTGGTAAAGGGATA,44,19,44.04786230111904,2.4246551459941728,36.84210526315789,3,0.4736842105263158,Ba_5_V35,F,44_R,ACAGAAGAGTTCAATCCAAA,20,46.48542360630887,0.01290615919565852,35.0,3,0.15,R,S4,A0605,Ba,,9547
80498,44_F,GTTGTTTGGTAAAGGGATA,44,19,44.04786230111904,3.1952013243965713,36.84210526315789,3,0.4736842105263158,Ba_6_V4,F,44_R,ACAGAAGAGTTCAATCCAAA,20,46.48542360630887,0.7576400192067396,35.0,3,0.15,R,S144,BA-BaBTSeqBa007P2--xx-xxx-xxxx-021-SF,Ba,,927
80528,44_F,GTTGTTTGGTAAAGGGATA,44,19,44.04786230111904,3.167261359623573,36.84210526315789,3,0.4736842105263158,Ba_V45,F,44_R,ACAGAAGAGTTCAATCCAAA,20,46.48542360630887,0.7297000544337422,35.0,3,0.15,R,S2,A0330,Ba,,21
80527,44_F,GTTGTTTGGTAAAGGGATA,44,19,44.04786230111904,3.167261359623573,36.84210526315789,3,0.4736842105263158,Ba_V45,F,44_R,ACAGAAGAGTTCAATCCAAA,20,46.48542360630887,0.7297000544337422,35.0,3,0.15,R,S6,A0706,Ba,,89
80525,44_F,GTTGTTTGGTAAAGGGATA,44,19,44.04786230111904,3.167261359623573,36.84210526315789,3,0.4736842105263158,Ba_V45,F,44_R,ACAGAAGAGTTCAATCCAAA,20,46.48542360630887,0.7297000544337422,35.0,3,0.15,R,S4,A0605,Ba,,9547
80526,44_F,GTTGTTTGGTAAAGGGATA,44,19,44.04786230111904,3.167261359623573,36.84210526315789,3,0.4736842105263158,Ba_V45,F,44_R,ACAGAAGAGTTCAATCCAAA,20,46.48542360630887,0.7297000544337422,35.0,3,0.15,R,S5,A0615,Ba,,81
93313,45_F,ACTTGCCAAGTTTCATATGT,45,20,47.24138946362797,0.9392077240420776,35.0,3,0.15,Ba_5_V3,F,45_R,TAATAAGGATGGTCACTCTA,20,43.71739805823681,2.584783681349066,35.0,2,0.0,R,S6,A0706,Ba,,97