,Primer_Name_L,Seq_L,Amplicon,Primer_Length_L,Tm_L,Delta Tm_L,GC_Content_L,Length_Longest_Homopolymer_L,Percent_Homopolymer_L,exp,flank_L,Primer_Name_R,Seq_R,Primer_Length_R,Tm_R,Delta Tm_R,GC_Content_R,Length_Longest_Homopolymer_R,Percent_Homopolymer_R,flank_R,sample_id,sample_name,species,strain,n_reads
46801,17_F,ATCCGGAAATTGCTATTAGAA,17,21,46.845342223199786,0.36978143754281945,33.33333333333333,3,0.14285714285714285,Ba_V45,F,17_R,TGAGCTGATGTTATACCAG,19,45.65984546063487,1.5552782001077432,42.105263157894726,2,0.0,R,S6,A0706,Ba,,3
46802,17_F,ATCCGGAAATTGCTATTAGAA,17,21,46.845342223199786,0.36978143754281945,33.33333333333333,3,0.14285714285714285,Ba_V45,F,17_R,TGAGCTGATGTTATACCAG,19,45.65984546063487,1.5552782001077432,42.105263157894726,2,0.0,R,S5,A0615,Ba,,3
46804,17_F,ATCCGGAAATTGCTATTAGAA,17,21,46.845342223199786,0.36978143754281945,33.33333333333333,3,0.14285714285714285,Ba_V45,F,17_R,TGAGCTGATGTTATACCAG,19,45.65984546063487,1.5552782001077432,42.105263157894726,2,0.0,R,S2,A0330,Ba,,5
46803,17_F,ATCCGGAAATTGCTATTAGAA,17,21,46.845342223199786,0.36978143754281945,33.33333333333333,3,0.14285714285714285,Ba_V45,F,17_R,TGAGCTGATGTTATACCAG,19,45.65984546063487,1.5552782001077432,42.105263157894726,2,0.0,R,S4,A0605,Ba,,2329
21362,18_F,GAATCGAAGCCTTCATTT,18,18,44.69400832560978,0.14229980014721375,38.888888888888886,3,0.16666666666666666,Ba_1,F,18_R,CTTCACTTGTAATGTGCCAT,20,48.14723597170071,3.3109278459436946,40.0,2,0.0,R,S2,A0330,Ba,,98
23834,18_F,CTGTATGTGGCGCTATTACGAAAA,18,24,53.92842301672085,5.072131416496823,41.66666666666667,4,0.16666666666666666,Ft_1,F,18_R,AGGTAATGATCTAAGTCTGGC,21,48.67502828359477,0.18126331662924852,42.857142857142854,2,0.0,R,S2,A0330,Ba,,98
23835,18_F,CTGTATGTGGCGCTATTACGAAAA,18,24,53.92842301672085,5.072131416496823,41.66666666666667,4,0.16666666666666666,Ft_1,F,18_R,AGGTAATGATCTAAGTCTGGC,21,48.67502828359477,0.18126331662924852,42.857142857142854,2,0.0,R,S6,A0706,Ba,,163
23836,18_F,CTGTATGTGGCGCTATTACGAAAA,18,24,53.92842301672085,5.072131416496823,41.66666666666667,4,0.16666666666666666,Ft_1,F,18_R,AGGTAATGATCTAAGTCTGGC,21,48.67502828359477,0.18126331662924852,42.857142857142854,2,0.0,R,S4,A0605,Ba,,9009
23837,18_F,CTGTATGTGGCGCTATTACGAAAA,18,24,53.92842301672085,5.072131416496823,41.66666666666667,4,0.16666666666666666,Ft_1,F,18_R,AGGTAATGATCTAAGTCTGGC,21,48.67502828359477,0.18126331662924852,42.857142857142854,2,0.0,R,S5,A0615,Ba,,258
23704,18_F,ATAGCGATGGTCAATTCAATGA,18,22,50.0822288486005,2.8671051878578813,36.36363636363637,2,0.0,Ba_V45,F,18_R,TGTGCCATCAAATAACTCTT,20,46.949777446224225,0.2653462145183809,35.0,3,0.15,R,S144,BA-BaBTSeqBa007P2--xx-xxx-xxxx-021-SF,Ba,,357
23910,18_F,CTGTATGTGGCGCTATTACGAAAA,18,24,53.92842301672085,5.072131416496823,41.66666666666667,4,0.16666666666666666,Ft_1,F,18_R,AGGTAATGATCTAAGTCTGGC,21,48.67502828359477,0.18126331662924852,42.857142857142854,2,0.0,R,S144,BA-BaBTSeqBa007P2--xx-xxx-xxxx-021-SF,Ba,,357
24040,18_F,GTCAAGGAACTATGATCCTGCTAAT,18,25,52.49395576692638,2.436767923112484,40.0,2,0.0,Ft_2_V2,F,18_R,AACAGCAAACCACTCCGTAT,20,51.607671693549385,1.5504838497354854,45.0,3,0.15,R,S2,A0330,Ba,,98
24041,18_F,GTCAAGGAACTATGATCCTGCTAAT,18,25,52.49395576692638,2.436767923112484,40.0,2,0.0,Ft_2_V2,F,18_R,AACAGCAAACCACTCCGTAT,20,51.607671693549385,1.5504838497354854,45.0,3,0.15,R,S6,A0706,Ba,,163
24042,18_F,GTCAAGGAACTATGATCCTGCTAAT,18,25,52.49395576692638,2.436767923112484,40.0,2,0.0,Ft_2_V2,F,18_R,AACAGCAAACCACTCCGTAT,20,51.607671693549385,1.5504838497354854,45.0,3,0.15,R,S4,A0605,Ba,,9009
24043,18_F,GTCAAGGAACTATGATCCTGCTAAT,18,25,52.49395576692638,2.436767923112484,40.0,2,0.0,Ft_2_V2,F,18_R,AACAGCAAACCACTCCGTAT,20,51.607671693549385,1.5504838497354854,45.0,3,0.15,R,S5,A0615,Ba,,258
24116,18_F,GTCAAGGAACTATGATCCTGCTAAT,18,25,52.49395576692638,2.436767923112484,40.0,2,0.0,Ft_2_V2,F,18_R,AACAGCAAACCACTCCGTAT,20,51.607671693549385,1.5504838497354854,45.0,3,0.15,R,S144,BA-BaBTSeqBa007P2--xx-xxx-xxxx-021-SF,Ba,,357
23422,18_F,TAGCGATGGTCAATTCAATGATAT,18,24,50.45526859330521,0.25981601349757,33.33333333333333,2,0.0,Ba_OkX,F,18_R,AACCAAGCGCATAAGATGG,19,50.267661424498044,0.4474231823047461,47.368421052631575,2,0.0,R,S2,A0330,Ba,,98
23423,18_F,TAGCGATGGTCAATTCAATGATAT,18,24,50.45526859330521,0.25981601349757,33.33333333333333,2,0.0,Ba_OkX,F,18_R,AACCAAGCGCATAAGATGG,19,50.267661424498044,0.4474231823047461,47.368421052631575,2,0.0,R,S6,A0706,Ba,,163
23424,18_F,TAGCGATGGTCAATTCAATGATAT,18,24,50.45526859330521,0.25981601349757,33.33333333333333,2,0.0,Ba_OkX,F,18_R,AACCAAGCGCATAAGATGG,19,50.267661424498044,0.4474231823047461,47.368421052631575,2,0.0,R,S4,A0605,Ba,,9009
23425,18_F,TAGCGATGGTCAATTCAATGATAT,18,24,50.45526859330521,0.25981601349757,33.33333333333333,2,0.0,Ba_OkX,F,18_R,AACCAAGCGCATAAGATGG,19,50.267661424498044,0.4474231823047461,47.368421052631575,2,0.0,R,S5,A0615,Ba,,258
23217,18_F,TTCGCATAGAAGCAGATGAG,18,20,49.676572502523356,1.8958413160143903,45.0,2,0.0,Ba_LowSH,F,18_R,GTGCATCGTTAGCCGGAC,18,53.073760207457845,1.5013463889200906,61.111111111111114,2,0.0,R,S6,A0706,Ba,,163
23218,18_F,TTCGCATAGAAGCAGATGAG,18,20,49.676572502523356,1.8958413160143903,45.0,2,0.0,Ba_LowSH,F,18_R,GTGCATCGTTAGCCGGAC,18,53.073760207457845,1.5013463889200906,61.111111111111114,2,0.0,R,S4,A0605,Ba,,9009
23219,18_F,TTCGCATAGAAGCAGATGAG,18,20,49.676572502523356,1.8958413160143903,45.0,2,0.0,Ba_LowSH,F,18_R,GTGCATCGTTAGCCGGAC,18,53.073760207457845,1.5013463889200906,61.111111111111114,2,0.0,R,S5,A0615,Ba,,258
23292,18_F,TTCGCATAGAAGCAGATGAG,18,20,49.676572502523356,1.8958413160143903,45.0,2,0.0,Ba_LowSH,F,18_R,GTGCATCGTTAGCCGGAC,18,53.073760207457845,1.5013463889200906,61.111111111111114,2,0.0,R,S144,BA-BaBTSeqBa007P2--xx-xxx-xxxx-021-SF,Ba,,357
23628,18_F,ATAGCGATGGTCAATTCAATGA,18,22,50.0822288486005,2.8671051878578813,36.36363636363637,2,0.0,Ba_V45,F,18_R,TGTGCCATCAAATAACTCTT,20,46.949777446224225,0.2653462145183809,35.0,3,0.15,R,S2,A0330,Ba,,98
23629,18_F,ATAGCGATGGTCAATTCAATGA,18,22,50.0822288486005,2.8671051878578813,36.36363636363637,2,0.0,Ba_V45,F,18_R,TGTGCCATCAAATAACTCTT,20,46.949777446224225,0.2653462145183809,35.0,3,0.15,R,S6,A0706,Ba,,163
23630,18_F,ATAGCGATGGTCAATTCAATGA,18,22,50.0822288486005,2.8671051878578813,36.36363636363637,2,0.0,Ba_V45,F,18_R,TGTGCCATCAAATAACTCTT,20,46.949777446224225,0.2653462145183809,35.0,3,0.15,R,S4,A0605,Ba,,9009
23631,18_F,ATAGCGATGGTCAATTCAATGA,18,22,50.0822288486005,2.8671051878578813,36.36363636363637,2,0.0,Ba_V45,F,18_R,TGTGCCATCAAATAACTCTT,20,46.949777446224225,0.2653462145183809,35.0,3,0.15,R,S5,A0615,Ba,,258
23498,18_F,TAGCGATGGTCAATTCAATGATAT,18,24,50.45526859330521,0.25981601349757,33.33333333333333,2,0.0,Ba_OkX,F,18_R,AACCAAGCGCATAAGATGG,19,50.267661424498044,0.4474231823047461,47.368421052631575,2,0.0,R,S144,BA-BaBTSeqBa007P2--xx-xxx-xxxx-021-SF,Ba,,357
23216,18_F,TTCGCATAGAAGCAGATGAG,18,20,49.676572502523356,1.8958413160143903,45.0,2,0.0,Ba_LowSH,F,18_R,GTGCATCGTTAGCCGGAC,18,53.073760207457845,1.5013463889200906,61.111111111111114,2,0.0,R,S2,A0330,Ba,,98
24734,18_F,TATTCTCACGGCTCACTAT,18,19,46.839395524056734,4.585494228585958,42.105263157894726,2,0.0,Yp_1,F,18_R,CAGCGAGCAGTATTGGTG,18,50.35954947615079,1.065340276491895,55.555555555555564,2,0.0,R,S144,BA-BaBTSeqBa007P2--xx-xxx-xxxx-021-SF,Ba,,357
24658,18_F,TATTCTCACGGCTCACTAT,18,19,46.839395524056734,4.585494228585958,42.105263157894726,2,0.0,Yp_1,F,18_R,CAGCGAGCAGTATTGGTG,18,50.35954947615079,1.065340276491895,55.555555555555564,2,0.0,R,S2,A0330,Ba,,98
24659,18_F,TATTCTCACGGCTCACTAT,18,19,46.839395524056734,4.585494228585958,42.105263157894726,2,0.0,Yp_1,F,18_R,CAGCGAGCAGTATTGGTG,18,50.35954947615079,1.065340276491895,55.555555555555564,2,0.0,R,S6,A0706,Ba,,163
24660,18_F,TATTCTCACGGCTCACTAT,18,19,46.839395524056734,4.585494228585958,42.105263157894726,2,0.0,Yp_1,F,18_R,CAGCGAGCAGTATTGGTG,18,50.35954947615079,1.065340276491895,55.555555555555564,2,0.0,R,S4,A0605,Ba,,9009
24661,18_F,TATTCTCACGGCTCACTAT,18,19,46.839395524056734,4.585494228585958,42.105263157894726,2,0.0,Yp_1,F,18_R,CAGCGAGCAGTATTGGTG,18,50.35954947615079,1.065340276491895,55.555555555555564,2,0.0,R,S5,A0615,Ba,,258
24867,18_F,AGCAATCGCCAGAAACAACA,18,20,52.89722376927284,0.8999935487884514,45.0,3,0.15,Yp_2,F,18_R,GTTCACGACTGCTGTTTACCGACT,24,57.46883616849328,5.471605948008894,50.0,3,0.125,R,S5,A0615,Ba,,258
24866,18_F,AGCAATCGCCAGAAACAACA,18,20,52.89722376927284,0.8999935487884514,45.0,3,0.15,Yp_2,F,18_R,GTTCACGACTGCTGTTTACCGACT,24,57.46883616849328,5.471605948008894,50.0,3,0.125,R,S4,A0605,Ba,,9009
24864,18_F,AGCAATCGCCAGAAACAACA,18,20,52.89722376927284,0.8999935487884514,45.0,3,0.15,Yp_2,F,18_R,GTTCACGACTGCTGTTTACCGACT,24,57.46883616849328,5.471605948008894,50.0,3,0.125,R,S2,A0330,Ba,,98
24865,18_F,AGCAATCGCCAGAAACAACA,18,20,52.89722376927284,0.8999935487884514,45.0,3,0.15,Yp_2,F,18_R,GTTCACGACTGCTGTTTACCGACT,24,57.46883616849328,5.471605948008894,50.0,3,0.125,R,S6,A0706,Ba,,163
24940,18_F,AGCAATCGCCAGAAACAACA,18,20,52.89722376927284,0.8999935487884514,45.0,3,0.15,Yp_2,F,18_R,GTTCACGACTGCTGTTTACCGACT,24,57.46883616849328,5.471605948008894,50.0,3,0.125,R,S144,BA-BaBTSeqBa007P2--xx-xxx-xxxx-021-SF,Ba,,357
24322,18_F,GTCAAGGAACTATGATCCTGCTAAT,18,25,52.49395576692638,2.221179927516367,40.0,2,0.0,Ft_2,F,18_R,AACAGCAAACCACTCCGTAT,20,51.607671693549385,1.3348958541393685,45.0,3,0.15,R,S144,BA-BaBTSeqBa007P2--xx-xxx-xxxx-021-SF,Ba,,357
24246,18_F,GTCAAGGAACTATGATCCTGCTAAT,18,25,52.49395576692638,2.221179927516367,40.0,2,0.0,Ft_2,F,18_R,AACAGCAAACCACTCCGTAT,20,51.607671693549385,1.3348958541393685,45.0,3,0.15,R,S2,A0330,Ba,,98
24247,18_F,GTCAAGGAACTATGATCCTGCTAAT,18,25,52.49395576692638,2.221179927516367,40.0,2,0.0,Ft_2,F,18_R,AACAGCAAACCACTCCGTAT,20,51.607671693549385,1.3348958541393685,45.0,3,0.15,R,S6,A0706,Ba,,163
24248,18_F,GTCAAGGAACTATGATCCTGCTAAT,18,25,52.49395576692638,2.221179927516367,40.0,2,0.0,Ft_2,F,18_R,AACAGCAAACCACTCCGTAT,20,51.607671693549385,1.3348958541393685,45.0,3,0.15,R,S4,A0605,Ba,,9009
24249,18_F,GTCAAGGAACTATGATCCTGCTAAT,18,25,52.49395576692638,2.221179927516367,40.0,2,0.0,Ft_2,F,18_R,AACAGCAAACCACTCCGTAT,20,51.607671693549385,1.3348958541393685,45.0,3,0.15,R,S5,A0615,Ba,,258
24528,18_F,TATTCTCACGGCTCACTAT,18,19,46.839395524056734,4.3268161306273845,42.105263157894726,2,0.0,Yp_1_V2,F,18_R,CAGCGAGCAGTATTGGTG,18,50.35954947615079,0.8066621785333226,55.555555555555564,2,0.0,R,S144,BA-BaBTSeqBa007P2--xx-xxx-xxxx-021-SF,Ba,,357
24452,18_F,TATTCTCACGGCTCACTAT,18,19,46.839395524056734,4.3268161306273845,42.105263157894726,2,0.0,Yp_1_V2,F,18_R,CAGCGAGCAGTATTGGTG,18,50.35954947615079,0.8066621785333226,55.555555555555564,2,0.0,R,S2,A0330,Ba,,98
24453,18_F,TATTCTCACGGCTCACTAT,18,19,46.839395524056734,4.3268161306273845,42.105263157894726,2,0.0,Yp_1_V2,F,18_R,CAGCGAGCAGTATTGGTG,18,50.35954947615079,0.8066621785333226,55.555555555555564,2,0.0,R,S6,A0706,Ba,,163
24454,18_F,TATTCTCACGGCTCACTAT,18,19,46.839395524056734,4.3268161306273845,42.105263157894726,2,0.0,Yp_1_V2,F,18_R,CAGCGAGCAGTATTGGTG,18,50.35954947615079,0.8066621785333226,55.555555555555564,2,0.0,R,S4,A0605,Ba,,9009
24455,18_F,TATTCTCACGGCTCACTAT,18,19,46.839395524056734,4.3268161306273845,42.105263157894726,2,0.0,Yp_1_V2,F,18_R,CAGCGAGCAGTATTGGTG,18,50.35954947615079,0.8066621785333226,55.555555555555564,2,0.0,R,S5,A0615,Ba,,258
21980,18_F,ATAGCGATGGTCAATTCAATGA,18,22,50.0822288486005,3.7800471090146033,36.36363636363637,2,0.0,Ba_4,F,18_R,TGTGCCATCAAATAACTCTT,20,46.949777446224225,0.6475957066383415,35.0,3,0.15,R,S2,A0330,Ba,,98
21981,18_F,ATAGCGATGGTCAATTCAATGA,18,22,50.0822288486005,3.7800471090146033,36.36363636363637,2,0.0,Ba_4,F,18_R,TGTGCCATCAAATAACTCTT,20,46.949777446224225,0.6475957066383415,35.0,3,0.15,R,S6,A0706,Ba,,163
21982,18_F,ATAGCGATGGTCAATTCAATGA,18,22,50.0822288486005,3.7800471090146033,36.36363636363637,2,0.0,Ba_4,F,18_R,TGTGCCATCAAATAACTCTT,20,46.949777446224225,0.6475957066383415,35.0,3,0.15,R,S4,A0605,Ba,,9009
21983,18_F,ATAGCGATGGTCAATTCAATGA,18,22,50.0822288486005,3.7800471090146033,36.36363636363637,2,0.0,Ba_4,F,18_R,TGTGCCATCAAATAACTCTT,20,46.949777446224225,0.6475957066383415,35.0,3,0.15,R,S5,A0615,Ba,,258
21850,18_F,GAATCGAAGCCTTCATTT,18,18,44.69400832560978,0.14229980014721375,38.888888888888886,3,0.16666666666666666,Ba_3,F,18_R,CTTCACTTGTAATGTGCCAT,20,48.14723597170071,3.3109278459436946,40.0,2,0.0,R,S144,BA-BaBTSeqBa007P2--xx-xxx-xxxx-021-SF,Ba,,357
22056,18_F,ATAGCGATGGTCAATTCAATGA,18,22,50.0822288486005,3.7800471090146033,36.36363636363637,2,0.0,Ba_4,F,18_R,TGTGCCATCAAATAACTCTT,20,46.949777446224225,0.6475957066383415,35.0,3,0.15,R,S144,BA-BaBTSeqBa007P2--xx-xxx-xxxx-021-SF,Ba,,357
22186,18_F,ATAGCGATGGTCAATTCAATGA,18,22,50.0822288486005,3.6097114014872815,36.36363636363637,2,0.0,Ba_5_V35,F,18_R,TGTGCCATCAAATAACTCTT,20,46.949777446224225,0.4772599991110198,35.0,3,0.15,R,S2,A0330,Ba,,98
22187,18_F,ATAGCGATGGTCAATTCAATGA,18,22,50.0822288486005,3.6097114014872815,36.36363636363637,2,0.0,Ba_5_V35,F,18_R,TGTGCCATCAAATAACTCTT,20,46.949777446224225,0.4772599991110198,35.0,3,0.15,R,S6,A0706,Ba,,163
22188,18_F,ATAGCGATGGTCAATTCAATGA,18,22,50.0822288486005,3.6097114014872815,36.36363636363637,2,0.0,Ba_5_V35,F,18_R,TGTGCCATCAAATAACTCTT,20,46.949777446224225,0.4772599991110198,35.0,3,0.15,R,S4,A0605,Ba,,9009
22189,18_F,ATAGCGATGGTCAATTCAATGA,18,22,50.0822288486005,3.6097114014872815,36.36363636363637,2,0.0,Ba_5_V35,F,18_R,TGTGCCATCAAATAACTCTT,20,46.949777446224225,0.4772599991110198,35.0,3,0.15,R,S5,A0615,Ba,,258
22262,18_F,ATAGCGATGGTCAATTCAATGA,18,22,50.0822288486005,3.6097114014872815,36.36363636363637,2,0.0,Ba_5_V35,F,18_R,TGTGCCATCAAATAACTCTT,20,46.949777446224225,0.4772599991110198,35.0,3,0.15,R,S144,BA-BaBTSeqBa007P2--xx-xxx-xxxx-021-SF,Ba,,357
21568,18_F,GAATCGAAGCCTTCATTT,18,18,44.69400832560978,0.14229980014721375,38.888888888888886,3,0.16666666666666666,Ba_2,F,18_R,CTTCACTTGTAATGTGCCAT,20,48.14723597170071,3.3109278459436946,40.0,2,0.0,R,S2,A0330,Ba,,98
21569,18_F,GAATCGAAGCCTTCATTT,18,18,44.69400832560978,0.14229980014721375,38.888888888888886,3,0.16666666666666666,Ba_2,F,18_R,CTTCACTTGTAATGTGCCAT,20,48.14723597170071,3.3109278459436946,40.0,2,0.0,R,S6,A0706,Ba,,163
21570,18_F,GAATCGAAGCCTTCATTT,18,18,44.69400832560978,0.14229980014721375,38.888888888888886,3,0.16666666666666666,Ba_2,F,18_R,CTTCACTTGTAATGTGCCAT,20,48.14723597170071,3.3109278459436946,40.0,2,0.0,R,S4,A0605,Ba,,9009
21571,18_F,GAATCGAAGCCTTCATTT,18,18,44.69400832560978,0.14229980014721375,38.888888888888886,3,0.16666666666666666,Ba_2,F,18_R,CTTCACTTGTAATGTGCCAT,20,48.14723597170071,3.3109278459436946,40.0,2,0.0,R,S5,A0615,Ba,,258
21363,18_F,GAATCGAAGCCTTCATTT,18,18,44.69400832560978,0.14229980014721375,38.888888888888886,3,0.16666666666666666,Ba_1,F,18_R,CTTCACTTGTAATGTGCCAT,20,48.14723597170071,3.3109278459436946,40.0,2,0.0,R,S6,A0706,Ba,,163
21364,18_F,GAATCGAAGCCTTCATTT,18,18,44.69400832560978,0.14229980014721375,38.888888888888886,3,0.16666666666666666,Ba_1,F,18_R,CTTCACTTGTAATGTGCCAT,20,48.14723597170071,3.3109278459436946,40.0,2,0.0,R,S4,A0605,Ba,,9009
21365,18_F,GAATCGAAGCCTTCATTT,18,18,44.69400832560978,0.14229980014721375,38.888888888888886,3,0.16666666666666666,Ba_1,F,18_R,CTTCACTTGTAATGTGCCAT,20,48.14723597170071,3.3109278459436946,40.0,2,0.0,R,S5,A0615,Ba,,258
21438,18_F,GAATCGAAGCCTTCATTT,18,18,44.69400832560978,0.14229980014721375,38.888888888888886,3,0.16666666666666666,Ba_1,F,18_R,CTTCACTTGTAATGTGCCAT,20,48.14723597170071,3.3109278459436946,40.0,2,0.0,R,S144,BA-BaBTSeqBa007P2--xx-xxx-xxxx-021-SF,Ba,,357
21774,18_F,GAATCGAAGCCTTCATTT,18,18,44.69400832560978,0.14229980014721375,38.888888888888886,3,0.16666666666666666,Ba_3,F,18_R,CTTCACTTGTAATGTGCCAT,20,48.14723597170071,3.3109278459436946,40.0,2,0.0,R,S2,A0330,Ba,,98
21775,18_F,GAATCGAAGCCTTCATTT,18,18,44.69400832560978,0.14229980014721375,38.888888888888886,3,0.16666666666666666,Ba_3,F,18_R,CTTCACTTGTAATGTGCCAT,20,48.14723597170071,3.3109278459436946,40.0,2,0.0,R,S6,A0706,Ba,,163
21776,18_F,GAATCGAAGCCTTCATTT,18,18,44.69400832560978,0.14229980014721375,38.888888888888886,3,0.16666666666666666,Ba_3,F,18_R,CTTCACTTGTAATGTGCCAT,20,48.14723597170071,3.3109278459436946,40.0,2,0.0,R,S4,A0605,Ba,,9009
21777,18_F,GAATCGAAGCCTTCATTT,18,18,44.69400832560978,0.14229980014721375,38.888888888888886,3,0.16666666666666666,Ba_3,F,18_R,CTTCACTTGTAATGTGCCAT,20,48.14723597170071,3.3109278459436946,40.0,2,0.0,R,S5,A0615,Ba,,258
21644,18_F,GAATCGAAGCCTTCATTT,18,18,44.69400832560978,0.14229980014721375,38.888888888888886,3,0.16666666666666666,Ba_2,F,18_R,CTTCACTTGTAATGTGCCAT,20,48.14723597170071,3.3109278459436946,40.0,2,0.0,R,S144,BA-BaBTSeqBa007P2--xx-xxx-xxxx-021-SF,Ba,,357
22880,18_F,TTCGCATAGAAGCAGATGAG,18,20,49.676572502523356,2.6879848066159724,45.0,2,0.0,Ba_HighSH,F,18_R,GTGCATCGTTAGCCGGAC,18,53.073760207457845,0.7092028983185088,61.111111111111114,2,0.0,R,S144,BA-BaBTSeqBa007P2--xx-xxx-xxxx-021-SF,Ba,,357
22804,18_F,TTCGCATAGAAGCAGATGAG,18,20,49.676572502523356,2.6879848066159724,45.0,2,0.0,Ba_HighSH,F,18_R,GTGCATCGTTAGCCGGAC,18,53.073760207457845,0.7092028983185088,61.111111111111114,2,0.0,R,S2,A0330,Ba,,98
22805,18_F,TTCGCATAGAAGCAGATGAG,18,20,49.676572502523356,2.6879848066159724,45.0,2,0.0,Ba_HighSH,F,18_R,GTGCATCGTTAGCCGGAC,18,53.073760207457845,0.7092028983185088,61.111111111111114,2,0.0,R,S6,A0706,Ba,,163
22806,18_F,TTCGCATAGAAGCAGATGAG,18,20,49.676572502523356,2.6879848066159724,45.0,2,0.0,Ba_HighSH,F,18_R,GTGCATCGTTAGCCGGAC,18,53.073760207457845,0.7092028983185088,61.111111111111114,2,0.0,R,S4,A0605,Ba,,9009
22807,18_F,TTCGCATAGAAGCAGATGAG,18,20,49.676572502523356,2.6879848066159724,45.0,2,0.0,Ba_HighSH,F,18_R,GTGCATCGTTAGCCGGAC,18,53.073760207457845,0.7092028983185088,61.111111111111114,2,0.0,R,S5,A0615,Ba,,258
23013,18_F,TTCGCATAGAAGCAGATGAG,18,20,49.676572502523356,1.845873605620497,45.0,2,0.0,Ba_HighSpec,F,18_R,GTGCATCGTTAGCCGGAC,18,53.073760207457845,1.5513140993139842,61.111111111111114,2,0.0,R,S5,A0615,Ba,,258
23012,18_F,TTCGCATAGAAGCAGATGAG,18,20,49.676572502523356,1.845873605620497,45.0,2,0.0,Ba_HighSpec,F,18_R,GTGCATCGTTAGCCGGAC,18,53.073760207457845,1.5513140993139842,61.111111111111114,2,0.0,R,S4,A0605,Ba,,9009
23010,18_F,TTCGCATAGAAGCAGATGAG,18,20,49.676572502523356,1.845873605620497,45.0,2,0.0,Ba_HighSpec,F,18_R,GTGCATCGTTAGCCGGAC,18,53.073760207457845,1.5513140993139842,61.111111111111114,2,0.0,R,S2,A0330,Ba,,98
23011,18_F,TTCGCATAGAAGCAGATGAG,18,20,49.676572502523356,1.845873605620497,45.0,2,0.0,Ba_HighSpec,F,18_R,GTGCATCGTTAGCCGGAC,18,53.073760207457845,1.5513140993139842,61.111111111111114,2,0.0,R,S6,A0706,Ba,,163
23086,18_F,TTCGCATAGAAGCAGATGAG,18,20,49.676572502523356,1.845873605620497,45.0,2,0.0,Ba_HighSpec,F,18_R,GTGCATCGTTAGCCGGAC,18,53.073760207457845,1.5513140993139842,61.111111111111114,2,0.0,R,S144,BA-BaBTSeqBa007P2--xx-xxx-xxxx-021-SF,Ba,,357
22468,18_F,ATAGCGATGGTCAATTCAATGA,18,22,50.0822288486005,3.7800471090146033,36.36363636363637,2,0.0,Ba_5_V3,F,18_R,TGTGCCATCAAATAACTCTT,20,46.949777446224225,0.6475957066383415,35.0,3,0.15,R,S144,BA-BaBTSeqBa007P2--xx-xxx-xxxx-021-SF,Ba,,357
22392,18_F,ATAGCGATGGTCAATTCAATGA,18,22,50.0822288486005,3.7800471090146033,36.36363636363637,2,0.0,Ba_5_V3,F,18_R,TGTGCCATCAAATAACTCTT,20,46.949777446224225,0.6475957066383415,35.0,3,0.15,R,S2,A0330,Ba,,98
22393,18_F,ATAGCGATGGTCAATTCAATGA,18,22,50.0822288486005,3.7800471090146033,36.36363636363637,2,0.0,Ba_5_V3,F,18_R,TGTGCCATCAAATAACTCTT,20,46.949777446224225,0.6475957066383415,35.0,3,0.15,R,S6,A0706,Ba,,163
22394,18_F,ATAGCGATGGTCAATTCAATGA,18,22,50.0822288486005,3.7800471090146033,36.36363636363637,2,0.0,Ba_5_V3,F,18_R,TGTGCCATCAAATAACTCTT,20,46.949777446224225,0.6475957066383415,35.0,3,0.15,R,S4,A0605,Ba,,9009
22395,18_F,ATAGCGATGGTCAATTCAATGA,18,22,50.0822288486005,3.7800471090146033,36.36363636363637,2,0.0,Ba_5_V3,F,18_R,TGTGCCATCAAATAACTCTT,20,46.949777446224225,0.6475957066383415,35.0,3,0.15,R,S5,A0615,Ba,,258
22674,18_F,ATAGCGATGGTCAATTCAATGA,18,22,50.0822288486005,2.8391652230848834,36.36363636363637,2,0.0,Ba_6_V4,F,18_R,TGTGCCATCAAATAACTCTT,20,46.949777446224225,0.29328617929137835,35.0,3,0.15,R,S144,BA-BaBTSeqBa007P2--xx-xxx-xxxx-021-SF,Ba,,357