,Primer_Name_L,Seq_L,Amplicon,Primer_Length_L,Tm_L,Delta Tm_L,GC_Content_L,Length_Longest_Homopolymer_L,Percent_Homopolymer_L,exp,flank_L,Primer_Name_R,Seq_R,Primer_Length_R,Tm_R,Delta Tm_R,GC_Content_R,Length_Longest_Homopolymer_R,Percent_Homopolymer_R,flank_R,sample_id,sample_name,species,strain,n_reads
38967,51_F,TATTCGTCGCATGGAAAT,51,18,46.03876531173069,0.43375213538252666,38.888888888888886,3,0.16666666666666666,Ba_5_V35,F,51_R,TCTAGTCTAAATGGATCTTTA,21,42.44892069505903,4.023596752054182,28.57142857142857,3,0.2857142857142857,R,S6,A0706,Ba,,0
39237,51_F,TATTCGTCGCATGGAAAT,51,18,46.03876531173069,1.2042983137849248,38.888888888888886,3,0.16666666666666666,Ba_6_V4,F,51_R,TCTAGTCTAAATGGATCTTTA,21,42.44892069505903,4.79414293045658,28.57142857142857,3,0.2857142857142857,R,S144,BA-BaBTSeqBa007P2--xx-xxx-xxxx-021-SF,Ba,,679
39257,51_F,TATTCGTCGCATGGAAAT,51,18,46.03876531173069,1.1763583490119274,38.888888888888886,3,0.16666666666666666,Ba_V45,F,51_R,TCTAGTCTAAATGGATCTTTA,21,42.44892069505903,4.766202965683583,28.57142857142857,3,0.2857142857142857,R,S5,A0615,Ba,,0
39163,51_F,TATTCGTCGCATGGAAAT,51,18,46.03876531173069,1.2042983137849248,38.888888888888886,3,0.16666666666666666,Ba_6_V4,F,51_R,TCTAGTCTAAATGGATCTTTA,21,42.44892069505903,4.79414293045658,28.57142857142857,3,0.2857142857142857,R,S2,A0330,Ba,,0
39258,51_F,TATTCGTCGCATGGAAAT,51,18,46.03876531173069,1.1763583490119274,38.888888888888886,3,0.16666666666666666,Ba_V45,F,51_R,TCTAGTCTAAATGGATCTTTA,21,42.44892069505903,4.766202965683583,28.57142857142857,3,0.2857142857142857,R,S6,A0706,Ba,,0
39260,51_F,TATTCGTCGCATGGAAAT,51,18,46.03876531173069,1.1763583490119274,38.888888888888886,3,0.16666666666666666,Ba_V45,F,51_R,TCTAGTCTAAATGGATCTTTA,21,42.44892069505903,4.766202965683583,28.57142857142857,3,0.2857142857142857,R,S2,A0330,Ba,,0
39334,51_F,TATTCGTCGCATGGAAAT,51,18,46.03876531173069,1.1763583490119274,38.888888888888886,3,0.16666666666666666,Ba_V45,F,51_R,TCTAGTCTAAATGGATCTTTA,21,42.44892069505903,4.766202965683583,28.57142857142857,3,0.2857142857142857,R,S144,BA-BaBTSeqBa007P2--xx-xxx-xxxx-021-SF,Ba,,679
39259,51_F,TATTCGTCGCATGGAAAT,51,18,46.03876531173069,1.1763583490119274,38.888888888888886,3,0.16666666666666666,Ba_V45,F,51_R,TCTAGTCTAAATGGATCTTTA,21,42.44892069505903,4.766202965683583,28.57142857142857,3,0.2857142857142857,R,S4,A0605,Ba,,326
38966,51_F,TATTCGTCGCATGGAAAT,51,18,46.03876531173069,0.43375213538252666,38.888888888888886,3,0.16666666666666666,Ba_5_V35,F,51_R,TCTAGTCTAAATGGATCTTTA,21,42.44892069505903,4.023596752054182,28.57142857142857,3,0.2857142857142857,R,S5,A0615,Ba,,0
39162,51_F,TATTCGTCGCATGGAAAT,51,18,46.03876531173069,1.2042983137849248,38.888888888888886,3,0.16666666666666666,Ba_6_V4,F,51_R,TCTAGTCTAAATGGATCTTTA,21,42.44892069505903,4.79414293045658,28.57142857142857,3,0.2857142857142857,R,S4,A0605,Ba,,326
39160,51_F,TATTCGTCGCATGGAAAT,51,18,46.03876531173069,1.2042983137849248,38.888888888888886,3,0.16666666666666666,Ba_6_V4,F,51_R,TCTAGTCTAAATGGATCTTTA,21,42.44892069505903,4.79414293045658,28.57142857142857,3,0.2857142857142857,R,S5,A0615,Ba,,0
39043,51_F,TATTCGTCGCATGGAAAT,51,18,46.03876531173069,0.43375213538252666,38.888888888888886,3,0.16666666666666666,Ba_5_V35,F,51_R,TCTAGTCTAAATGGATCTTTA,21,42.44892069505903,4.023596752054182,28.57142857142857,3,0.2857142857142857,R,S144,BA-BaBTSeqBa007P2--xx-xxx-xxxx-021-SF,Ba,,679
38969,51_F,TATTCGTCGCATGGAAAT,51,18,46.03876531173069,0.43375213538252666,38.888888888888886,3,0.16666666666666666,Ba_5_V35,F,51_R,TCTAGTCTAAATGGATCTTTA,21,42.44892069505903,4.023596752054182,28.57142857142857,3,0.2857142857142857,R,S2,A0330,Ba,,0
38968,51_F,TATTCGTCGCATGGAAAT,51,18,46.03876531173069,0.43375213538252666,38.888888888888886,3,0.16666666666666666,Ba_5_V35,F,51_R,TCTAGTCTAAATGGATCTTTA,21,42.44892069505903,4.023596752054182,28.57142857142857,3,0.2857142857142857,R,S4,A0605,Ba,,326
39161,51_F,TATTCGTCGCATGGAAAT,51,18,46.03876531173069,1.2042983137849248,38.888888888888886,3,0.16666666666666666,Ba_6_V4,F,51_R,TCTAGTCTAAATGGATCTTTA,21,42.44892069505903,4.79414293045658,28.57142857142857,3,0.2857142857142857,R,S6,A0706,Ba,,0
39063,51_F,TATTCGTCGCATGGAAAT,51,18,46.03876531173069,0.2634164278552049,38.888888888888886,3,0.16666666666666666,Ba_5_V3,F,51_R,TCTAGTCTAAATGGATCTTTA,21,42.44892069505903,3.85326104452686,28.57142857142857,3,0.2857142857142857,R,S5,A0615,Ba,,0
39065,51_F,TATTCGTCGCATGGAAAT,51,18,46.03876531173069,0.2634164278552049,38.888888888888886,3,0.16666666666666666,Ba_5_V3,F,51_R,TCTAGTCTAAATGGATCTTTA,21,42.44892069505903,3.85326104452686,28.57142857142857,3,0.2857142857142857,R,S4,A0605,Ba,,326
39140,51_F,TATTCGTCGCATGGAAAT,51,18,46.03876531173069,0.2634164278552049,38.888888888888886,3,0.16666666666666666,Ba_5_V3,F,51_R,TCTAGTCTAAATGGATCTTTA,21,42.44892069505903,3.85326104452686,28.57142857142857,3,0.2857142857142857,R,S144,BA-BaBTSeqBa007P2--xx-xxx-xxxx-021-SF,Ba,,679
39066,51_F,TATTCGTCGCATGGAAAT,51,18,46.03876531173069,0.2634164278552049,38.888888888888886,3,0.16666666666666666,Ba_5_V3,F,51_R,TCTAGTCTAAATGGATCTTTA,21,42.44892069505903,3.85326104452686,28.57142857142857,3,0.2857142857142857,R,S2,A0330,Ba,,0
39064,51_F,TATTCGTCGCATGGAAAT,51,18,46.03876531173069,0.2634164278552049,38.888888888888886,3,0.16666666666666666,Ba_5_V3,F,51_R,TCTAGTCTAAATGGATCTTTA,21,42.44892069505903,3.85326104452686,28.57142857142857,3,0.2857142857142857,R,S6,A0706,Ba,,0
38578,51_F,TATTCGTCGCATGGAAAT,51,18,46.03876531173069,1.2024571859736852,38.888888888888886,3,0.16666666666666666,Ba_1,F,51_R,TCTAGTCTAAATGGATCTTTA,21,42.44892069505903,2.38738743069797,28.57142857142857,3,0.2857142857142857,R,S5,A0615,Ba,,0
81639,52_F,TGTTGGTAACCTACAATTA,52,19,42.50610806334379,3.7960736762421017,31.578947368421048,2,0.0,Ba_4,F,52_R,TCTATCAGGTAACCCTTT,18,42.74209249843921,3.5600892411466845,38.888888888888886,3,0.3333333333333333,R,S2,A0330,Ba,,0
81638,52_F,TGTTGGTAACCTACAATTA,52,19,42.50610806334379,3.7960736762421017,31.578947368421048,2,0.0,Ba_4,F,52_R,TCTATCAGGTAACCCTTT,18,42.74209249843921,3.5600892411466845,38.888888888888886,3,0.3333333333333333,R,S5,A0615,Ba,,0
81637,52_F,TGTTGGTAACCTACAATTA,52,19,42.50610806334379,3.7960736762421017,31.578947368421048,2,0.0,Ba_4,F,52_R,TCTATCAGGTAACCCTTT,18,42.74209249843921,3.5600892411466845,38.888888888888886,3,0.3333333333333333,R,S6,A0706,Ba,,0
81636,52_F,TGTTGGTAACCTACAATTA,52,19,42.50610806334379,3.7960736762421017,31.578947368421048,2,0.0,Ba_4,F,52_R,TCTATCAGGTAACCCTTT,18,42.74209249843921,3.5600892411466845,38.888888888888886,3,0.3333333333333333,R,S4,A0605,Ba,,73
81617,52_F,TGTTGGTAACCTACAATTA,52,19,42.50610806334379,2.330200062413212,31.578947368421048,2,0.0,Ba_3,F,52_R,TCTATCAGGTAACCCTTT,18,42.74209249843921,2.0942156273177943,38.888888888888886,3,0.3333333333333333,R,S144,BA-BaBTSeqBa007P2--xx-xxx-xxxx-021-SF,Ba,,14
81710,52_F,TGTTGGTAACCTACAATTA,52,19,42.50610806334379,3.7960736762421017,31.578947368421048,2,0.0,Ba_5_V3,F,52_R,TCTATCAGGTAACCCTTT,18,42.74209249843921,3.5600892411466845,38.888888888888886,3,0.3333333333333333,R,S2,A0330,Ba,,0
81709,52_F,TGTTGGTAACCTACAATTA,52,19,42.50610806334379,3.7960736762421017,31.578947368421048,2,0.0,Ba_5_V3,F,52_R,TCTATCAGGTAACCCTTT,18,42.74209249843921,3.5600892411466845,38.888888888888886,3,0.3333333333333333,R,S5,A0615,Ba,,0
81688,52_F,TGTTGGTAACCTACAATTA,52,19,42.50610806334379,3.7960736762421017,31.578947368421048,2,0.0,Ba_4,F,52_R,TCTATCAGGTAACCCTTT,18,42.74209249843921,3.5600892411466845,38.888888888888886,3,0.3333333333333333,R,S144,BA-BaBTSeqBa007P2--xx-xxx-xxxx-021-SF,Ba,,14
81708,52_F,TGTTGGTAACCTACAATTA,52,19,42.50610806334379,3.7960736762421017,31.578947368421048,2,0.0,Ba_5_V3,F,52_R,TCTATCAGGTAACCCTTT,18,42.74209249843921,3.5600892411466845,38.888888888888886,3,0.3333333333333333,R,S6,A0706,Ba,,0
81707,52_F,TGTTGGTAACCTACAATTA,52,19,42.50610806334379,3.7960736762421017,31.578947368421048,2,0.0,Ba_5_V3,F,52_R,TCTATCAGGTAACCCTTT,18,42.74209249843921,3.5600892411466845,38.888888888888886,3,0.3333333333333333,R,S4,A0605,Ba,,73
81497,52_F,TGTTGGTAACCTACAATTA,52,19,42.50610806334379,2.330200062413212,31.578947368421048,2,0.0,Ba_2,F,52_R,TCTATCAGGTAACCCTTT,18,42.74209249843921,2.0942156273177943,38.888888888888886,3,0.3333333333333333,R,S2,A0330,Ba,,0
81496,52_F,TGTTGGTAACCTACAATTA,52,19,42.50610806334379,2.330200062413212,31.578947368421048,2,0.0,Ba_2,F,52_R,TCTATCAGGTAACCCTTT,18,42.74209249843921,2.0942156273177943,38.888888888888886,3,0.3333333333333333,R,S5,A0615,Ba,,0
81495,52_F,TGTTGGTAACCTACAATTA,52,19,42.50610806334379,2.330200062413212,31.578947368421048,2,0.0,Ba_2,F,52_R,TCTATCAGGTAACCCTTT,18,42.74209249843921,2.0942156273177943,38.888888888888886,3,0.3333333333333333,R,S6,A0706,Ba,,0
81494,52_F,TGTTGGTAACCTACAATTA,52,19,42.50610806334379,2.330200062413212,31.578947368421048,2,0.0,Ba_2,F,52_R,TCTATCAGGTAACCCTTT,18,42.74209249843921,2.0942156273177943,38.888888888888886,3,0.3333333333333333,R,S4,A0605,Ba,,73
81475,52_F,TGTTGGTAACCTACAATTA,52,19,42.50610806334379,2.330200062413212,31.578947368421048,2,0.0,Ba_1,F,52_R,TCTATCAGGTAACCCTTT,18,42.74209249843921,2.0942156273177943,38.888888888888886,3,0.3333333333333333,R,S144,BA-BaBTSeqBa007P2--xx-xxx-xxxx-021-SF,Ba,,14
81568,52_F,TGTTGGTAACCTACAATTA,52,19,42.50610806334379,2.330200062413212,31.578947368421048,2,0.0,Ba_3,F,52_R,TCTATCAGGTAACCCTTT,18,42.74209249843921,2.0942156273177943,38.888888888888886,3,0.3333333333333333,R,S2,A0330,Ba,,0
81567,52_F,TGTTGGTAACCTACAATTA,52,19,42.50610806334379,2.330200062413212,31.578947368421048,2,0.0,Ba_3,F,52_R,TCTATCAGGTAACCCTTT,18,42.74209249843921,2.0942156273177943,38.888888888888886,3,0.3333333333333333,R,S5,A0615,Ba,,0
81566,52_F,TGTTGGTAACCTACAATTA,52,19,42.50610806334379,2.330200062413212,31.578947368421048,2,0.0,Ba_3,F,52_R,TCTATCAGGTAACCCTTT,18,42.74209249843921,2.0942156273177943,38.888888888888886,3,0.3333333333333333,R,S6,A0706,Ba,,0
81565,52_F,TGTTGGTAACCTACAATTA,52,19,42.50610806334379,2.330200062413212,31.578947368421048,2,0.0,Ba_3,F,52_R,TCTATCAGGTAACCCTTT,18,42.74209249843921,2.0942156273177943,38.888888888888886,3,0.3333333333333333,R,S4,A0605,Ba,,73
81546,52_F,TGTTGGTAACCTACAATTA,52,19,42.50610806334379,2.330200062413212,31.578947368421048,2,0.0,Ba_2,F,52_R,TCTATCAGGTAACCCTTT,18,42.74209249843921,2.0942156273177943,38.888888888888886,3,0.3333333333333333,R,S144,BA-BaBTSeqBa007P2--xx-xxx-xxxx-021-SF,Ba,,14
81851,52_F,AAGTCACAATGACATTCAAC,52,20,46.317568195470066,0.8975554652725393,35.0,2,0.0,Ba_V45,F,52_R,AACTTGTACCTTGTGGGATGT,21,51.17515177270571,3.9600281119630902,42.857142857142854,3,0.14285714285714285,R,S5,A0615,Ba,,0
81852,52_F,AAGTCACAATGACATTCAAC,52,20,46.317568195470066,0.8975554652725393,35.0,2,0.0,Ba_V45,F,52_R,AACTTGTACCTTGTGGGATGT,21,51.17515177270571,3.9600281119630902,42.857142857142854,3,0.14285714285714285,R,S2,A0330,Ba,,0
81901,52_F,AAGTCACAATGACATTCAAC,52,20,46.317568195470066,0.8975554652725393,35.0,2,0.0,Ba_V45,F,52_R,AACTTGTACCTTGTGGGATGT,21,51.17515177270571,3.9600281119630902,42.857142857142854,3,0.14285714285714285,R,S144,BA-BaBTSeqBa007P2--xx-xxx-xxxx-021-SF,Ba,,14
81426,52_F,TGTTGGTAACCTACAATTA,52,19,42.50610806334379,2.330200062413212,31.578947368421048,2,0.0,Ba_1,F,52_R,TCTATCAGGTAACCCTTT,18,42.74209249843921,2.0942156273177943,38.888888888888886,3,0.3333333333333333,R,S2,A0330,Ba,,0
81425,52_F,TGTTGGTAACCTACAATTA,52,19,42.50610806334379,2.330200062413212,31.578947368421048,2,0.0,Ba_1,F,52_R,TCTATCAGGTAACCCTTT,18,42.74209249843921,2.0942156273177943,38.888888888888886,3,0.3333333333333333,R,S5,A0615,Ba,,0
81424,52_F,TGTTGGTAACCTACAATTA,52,19,42.50610806334379,2.330200062413212,31.578947368421048,2,0.0,Ba_1,F,52_R,TCTATCAGGTAACCCTTT,18,42.74209249843921,2.0942156273177943,38.888888888888886,3,0.3333333333333333,R,S6,A0706,Ba,,0
81423,52_F,TGTTGGTAACCTACAATTA,52,19,42.50610806334379,2.330200062413212,31.578947368421048,2,0.0,Ba_1,F,52_R,TCTATCAGGTAACCCTTT,18,42.74209249843921,2.0942156273177943,38.888888888888886,3,0.3333333333333333,R,S4,A0605,Ba,,73
81850,52_F,AAGTCACAATGACATTCAAC,52,20,46.317568195470066,0.8975554652725393,35.0,2,0.0,Ba_V45,F,52_R,AACTTGTACCTTGTGGGATGT,21,51.17515177270571,3.9600281119630902,42.857142857142854,3,0.14285714285714285,R,S6,A0706,Ba,,0
81849,52_F,AAGTCACAATGACATTCAAC,52,20,46.317568195470066,0.8975554652725393,35.0,2,0.0,Ba_V45,F,52_R,AACTTGTACCTTGTGGGATGT,21,51.17515177270571,3.9600281119630902,42.857142857142854,3,0.14285714285714285,R,S4,A0605,Ba,,73
81778,52_F,AAGTCACAATGACATTCAAC,52,20,46.317568195470066,0.9254954300455368,35.0,2,0.0,Ba_6_V4,F,52_R,AACTTGTACCTTGTGGGATGT,21,51.17515177270571,3.932088147190093,42.857142857142854,3,0.14285714285714285,R,S4,A0605,Ba,,73
81779,52_F,AAGTCACAATGACATTCAAC,52,20,46.317568195470066,0.9254954300455368,35.0,2,0.0,Ba_6_V4,F,52_R,AACTTGTACCTTGTGGGATGT,21,51.17515177270571,3.932088147190093,42.857142857142854,3,0.14285714285714285,R,S6,A0706,Ba,,0
81780,52_F,AAGTCACAATGACATTCAAC,52,20,46.317568195470066,0.9254954300455368,35.0,2,0.0,Ba_6_V4,F,52_R,AACTTGTACCTTGTGGGATGT,21,51.17515177270571,3.932088147190093,42.857142857142854,3,0.14285714285714285,R,S5,A0615,Ba,,0
81781,52_F,AAGTCACAATGACATTCAAC,52,20,46.317568195470066,0.9254954300455368,35.0,2,0.0,Ba_6_V4,F,52_R,AACTTGTACCTTGTGGGATGT,21,51.17515177270571,3.932088147190093,42.857142857142854,3,0.14285714285714285,R,S2,A0330,Ba,,0
81759,52_F,TGTTGGTAACCTACAATTA,52,19,42.50610806334379,3.7960736762421017,31.578947368421048,2,0.0,Ba_5_V3,F,52_R,TCTATCAGGTAACCCTTT,18,42.74209249843921,3.5600892411466845,38.888888888888886,3,0.3333333333333333,R,S144,BA-BaBTSeqBa007P2--xx-xxx-xxxx-021-SF,Ba,,14
81830,52_F,AAGTCACAATGACATTCAAC,52,20,46.317568195470066,0.9254954300455368,35.0,2,0.0,Ba_6_V4,F,52_R,AACTTGTACCTTGTGGGATGT,21,51.17515177270571,3.932088147190093,42.857142857142854,3,0.14285714285714285,R,S144,BA-BaBTSeqBa007P2--xx-xxx-xxxx-021-SF,Ba,,14
82092,53_F,GAGAATGATGAACTTACTT,53,19,41.415005191712574,3.4213029340444336,31.578947368421048,2,0.0,Ba_2,F,53_R,CTTTAGTTATAGGATTCCCTT,21,43.75695766670759,1.079350459049408,33.33333333333333,3,0.2857142857142857,R,S144,BA-BaBTSeqBa007P2--xx-xxx-xxxx-021-SF,Ba,,872
82107,53_F,GAGAATGATGAACTTACTT,53,19,41.415005191712574,3.4213029340444336,31.578947368421048,2,0.0,Ba_3,F,53_R,CTTTAGTTATAGGATTCCCTT,21,43.75695766670759,1.079350459049408,33.33333333333333,3,0.2857142857142857,R,S4,A0605,Ba,,534
82106,53_F,GAGAATGATGAACTTACTT,53,19,41.415005191712574,3.4213029340444336,31.578947368421048,2,0.0,Ba_3,F,53_R,CTTTAGTTATAGGATTCCCTT,21,43.75695766670759,1.079350459049408,33.33333333333333,3,0.2857142857142857,R,S2,A0330,Ba,,0
82105,53_F,GAGAATGATGAACTTACTT,53,19,41.415005191712574,3.4213029340444336,31.578947368421048,2,0.0,Ba_3,F,53_R,CTTTAGTTATAGGATTCCCTT,21,43.75695766670759,1.079350459049408,33.33333333333333,3,0.2857142857142857,R,S6,A0706,Ba,,1
82104,53_F,GAGAATGATGAACTTACTT,53,19,41.415005191712574,3.4213029340444336,31.578947368421048,2,0.0,Ba_3,F,53_R,CTTTAGTTATAGGATTCCCTT,21,43.75695766670759,1.079350459049408,33.33333333333333,3,0.2857142857142857,R,S5,A0615,Ba,,0
82000,53_F,GAGAATGATGAACTTACTT,53,19,41.415005191712574,3.4213029340444336,31.578947368421048,2,0.0,Ba_1,F,53_R,CTTTAGTTATAGGATTCCCTT,21,43.75695766670759,1.079350459049408,33.33333333333333,3,0.2857142857142857,R,S144,BA-BaBTSeqBa007P2--xx-xxx-xxxx-021-SF,Ba,,872
82199,53_F,GAGAATGATGAACTTACTT,53,19,41.415005191712574,4.887176547873324,31.578947368421048,2,0.0,Ba_4,F,53_R,CTTTAGTTATAGGATTCCCTT,21,43.75695766670759,2.5452240728782987,33.33333333333333,3,0.2857142857142857,R,S4,A0605,Ba,,534
82015,53_F,GAGAATGATGAACTTACTT,53,19,41.415005191712574,3.4213029340444336,31.578947368421048,2,0.0,Ba_2,F,53_R,CTTTAGTTATAGGATTCCCTT,21,43.75695766670759,1.079350459049408,33.33333333333333,3,0.2857142857142857,R,S4,A0605,Ba,,534
82014,53_F,GAGAATGATGAACTTACTT,53,19,41.415005191712574,3.4213029340444336,31.578947368421048,2,0.0,Ba_2,F,53_R,CTTTAGTTATAGGATTCCCTT,21,43.75695766670759,1.079350459049408,33.33333333333333,3,0.2857142857142857,R,S2,A0330,Ba,,0
82013,53_F,GAGAATGATGAACTTACTT,53,19,41.415005191712574,3.4213029340444336,31.578947368421048,2,0.0,Ba_2,F,53_R,CTTTAGTTATAGGATTCCCTT,21,43.75695766670759,1.079350459049408,33.33333333333333,3,0.2857142857142857,R,S6,A0706,Ba,,1
82012,53_F,GAGAATGATGAACTTACTT,53,19,41.415005191712574,3.4213029340444336,31.578947368421048,2,0.0,Ba_2,F,53_R,CTTTAGTTATAGGATTCCCTT,21,43.75695766670759,1.079350459049408,33.33333333333333,3,0.2857142857142857,R,S5,A0615,Ba,,0
81923,53_F,GAGAATGATGAACTTACTT,53,19,41.415005191712574,3.4213029340444336,31.578947368421048,2,0.0,Ba_1,F,53_R,CTTTAGTTATAGGATTCCCTT,21,43.75695766670759,1.079350459049408,33.33333333333333,3,0.2857142857142857,R,S4,A0605,Ba,,534
81922,53_F,GAGAATGATGAACTTACTT,53,19,41.415005191712574,3.4213029340444336,31.578947368421048,2,0.0,Ba_1,F,53_R,CTTTAGTTATAGGATTCCCTT,21,43.75695766670759,1.079350459049408,33.33333333333333,3,0.2857142857142857,R,S2,A0330,Ba,,0
81921,53_F,GAGAATGATGAACTTACTT,53,19,41.415005191712574,3.4213029340444336,31.578947368421048,2,0.0,Ba_1,F,53_R,CTTTAGTTATAGGATTCCCTT,21,43.75695766670759,1.079350459049408,33.33333333333333,3,0.2857142857142857,R,S6,A0706,Ba,,1
81920,53_F,GAGAATGATGAACTTACTT,53,19,41.415005191712574,3.4213029340444336,31.578947368421048,2,0.0,Ba_1,F,53_R,CTTTAGTTATAGGATTCCCTT,21,43.75695766670759,1.079350459049408,33.33333333333333,3,0.2857142857142857,R,S5,A0615,Ba,,0
82460,53_F,GAGAATGATGAACTTACTT,53,19,41.415005191712574,4.887176547873324,31.578947368421048,2,0.0,Ba_5_V3,F,53_R,CTTTAGTTATAGGATTCCCTT,21,43.75695766670759,2.5452240728782987,33.33333333333333,3,0.2857142857142857,R,S144,BA-BaBTSeqBa007P2--xx-xxx-xxxx-021-SF,Ba,,872
82383,53_F,GAGAATGATGAACTTACTT,53,19,41.415005191712574,4.887176547873324,31.578947368421048,2,0.0,Ba_5_V3,F,53_R,CTTTAGTTATAGGATTCCCTT,21,43.75695766670759,2.5452240728782987,33.33333333333333,3,0.2857142857142857,R,S4,A0605,Ba,,534
82382,53_F,GAGAATGATGAACTTACTT,53,19,41.415005191712574,4.887176547873324,31.578947368421048,2,0.0,Ba_5_V3,F,53_R,CTTTAGTTATAGGATTCCCTT,21,43.75695766670759,2.5452240728782987,33.33333333333333,3,0.2857142857142857,R,S2,A0330,Ba,,0
82381,53_F,GAGAATGATGAACTTACTT,53,19,41.415005191712574,4.887176547873324,31.578947368421048,2,0.0,Ba_5_V3,F,53_R,CTTTAGTTATAGGATTCCCTT,21,43.75695766670759,2.5452240728782987,33.33333333333333,3,0.2857142857142857,R,S6,A0706,Ba,,1
82380,53_F,GAGAATGATGAACTTACTT,53,19,41.415005191712574,4.887176547873324,31.578947368421048,2,0.0,Ba_5_V3,F,53_R,CTTTAGTTATAGGATTCCCTT,21,43.75695766670759,2.5452240728782987,33.33333333333333,3,0.2857142857142857,R,S5,A0615,Ba,,0
82475,53_F,GAGAATGATGAACTTACTT,53,19,41.415005191712574,5.828058433803044,31.578947368421048,2,0.0,Ba_6_V4,F,53_R,CTTTAGTTATAGGATTCCCTT,21,43.75695766670759,3.486105958808018,33.33333333333333,3,0.2857142857142857,R,S4,A0605,Ba,,534
82474,53_F,GAGAATGATGAACTTACTT,53,19,41.415005191712574,5.828058433803044,31.578947368421048,2,0.0,Ba_6_V4,F,53_R,CTTTAGTTATAGGATTCCCTT,21,43.75695766670759,3.486105958808018,33.33333333333333,3,0.2857142857142857,R,S2,A0330,Ba,,0
82472,53_F,GAGAATGATGAACTTACTT,53,19,41.415005191712574,5.828058433803044,31.578947368421048,2,0.0,Ba_6_V4,F,53_R,CTTTAGTTATAGGATTCCCTT,21,43.75695766670759,3.486105958808018,33.33333333333333,3,0.2857142857142857,R,S5,A0615,Ba,,0
82473,53_F,GAGAATGATGAACTTACTT,53,19,41.415005191712574,5.828058433803044,31.578947368421048,2,0.0,Ba_6_V4,F,53_R,CTTTAGTTATAGGATTCCCTT,21,43.75695766670759,3.486105958808018,33.33333333333333,3,0.2857142857142857,R,S6,A0706,Ba,,1
82276,53_F,GAGAATGATGAACTTACTT,53,19,41.415005191712574,4.887176547873324,31.578947368421048,2,0.0,Ba_4,F,53_R,CTTTAGTTATAGGATTCCCTT,21,43.75695766670759,2.5452240728782987,33.33333333333333,3,0.2857142857142857,R,S144,BA-BaBTSeqBa007P2--xx-xxx-xxxx-021-SF,Ba,,872
82288,53_F,GAGAATGATGAACTTACTT,53,19,41.415005191712574,5.0575122554006455,31.578947368421048,2,0.0,Ba_5_V35,F,53_R,CTTTAGTTATAGGATTCCCTT,21,43.75695766670759,2.7155597804056204,33.33333333333333,3,0.2857142857142857,R,S5,A0615,Ba,,0