,Primer_Name_L,Seq_L,Amplicon,Primer_Length_L,Tm_L,Delta Tm_L,GC_Content_L,Length_Longest_Homopolymer_L,Percent_Homopolymer_L,exp,flank_L,Primer_Name_R,Seq_R,Primer_Length_R,Tm_R,Delta Tm_R,GC_Content_R,Length_Longest_Homopolymer_R,Percent_Homopolymer_R,flank_R,sample_id,sample_name,species,strain,n_reads
82368,53_F,GAGAATGATGAACTTACTT,53,19,41.415005191712574,5.0575122554006455,31.578947368421048,2,0.0,Ba_5_V35,F,53_R,CTTTAGTTATAGGATTCCCTT,21,43.75695766670759,2.7155597804056204,33.33333333333333,3,0.2857142857142857,R,S144,BA-BaBTSeqBa007P2--xx-xxx-xxxx-021-SF,Ba,,872
82291,53_F,GAGAATGATGAACTTACTT,53,19,41.415005191712574,5.0575122554006455,31.578947368421048,2,0.0,Ba_5_V35,F,53_R,CTTTAGTTATAGGATTCCCTT,21,43.75695766670759,2.7155597804056204,33.33333333333333,3,0.2857142857142857,R,S4,A0605,Ba,,534
82290,53_F,GAGAATGATGAACTTACTT,53,19,41.415005191712574,5.0575122554006455,31.578947368421048,2,0.0,Ba_5_V35,F,53_R,CTTTAGTTATAGGATTCCCTT,21,43.75695766670759,2.7155597804056204,33.33333333333333,3,0.2857142857142857,R,S2,A0330,Ba,,0
82289,53_F,GAGAATGATGAACTTACTT,53,19,41.415005191712574,5.0575122554006455,31.578947368421048,2,0.0,Ba_5_V35,F,53_R,CTTTAGTTATAGGATTCCCTT,21,43.75695766670759,2.7155597804056204,33.33333333333333,3,0.2857142857142857,R,S6,A0706,Ba,,1
82184,53_F,GAGAATGATGAACTTACTT,53,19,41.415005191712574,3.4213029340444336,31.578947368421048,2,0.0,Ba_3,F,53_R,CTTTAGTTATAGGATTCCCTT,21,43.75695766670759,1.079350459049408,33.33333333333333,3,0.2857142857142857,R,S144,BA-BaBTSeqBa007P2--xx-xxx-xxxx-021-SF,Ba,,872
82198,53_F,GAGAATGATGAACTTACTT,53,19,41.415005191712574,4.887176547873324,31.578947368421048,2,0.0,Ba_4,F,53_R,CTTTAGTTATAGGATTCCCTT,21,43.75695766670759,2.5452240728782987,33.33333333333333,3,0.2857142857142857,R,S2,A0330,Ba,,0
82197,53_F,GAGAATGATGAACTTACTT,53,19,41.415005191712574,4.887176547873324,31.578947368421048,2,0.0,Ba_4,F,53_R,CTTTAGTTATAGGATTCCCTT,21,43.75695766670759,2.5452240728782987,33.33333333333333,3,0.2857142857142857,R,S6,A0706,Ba,,1
82196,53_F,GAGAATGATGAACTTACTT,53,19,41.415005191712574,4.887176547873324,31.578947368421048,2,0.0,Ba_4,F,53_R,CTTTAGTTATAGGATTCCCTT,21,43.75695766670759,2.5452240728782987,33.33333333333333,3,0.2857142857142857,R,S5,A0615,Ba,,0
82552,53_F,GAGAATGATGAACTTACTT,53,19,41.415005191712574,5.828058433803044,31.578947368421048,2,0.0,Ba_6_V4,F,53_R,CTTTAGTTATAGGATTCCCTT,21,43.75695766670759,3.486105958808018,33.33333333333333,3,0.2857142857142857,R,S144,BA-BaBTSeqBa007P2--xx-xxx-xxxx-021-SF,Ba,,872
82644,53_F,GAGAATGATGAACTTACTT,53,19,41.415005191712574,5.800118469030046,31.578947368421048,2,0.0,Ba_V45,F,53_R,CTTTAGTTATAGGATTCCCTT,21,43.75695766670759,3.4581659940350207,33.33333333333333,3,0.2857142857142857,R,S144,BA-BaBTSeqBa007P2--xx-xxx-xxxx-021-SF,Ba,,872
82564,53_F,GAGAATGATGAACTTACTT,53,19,41.415005191712574,5.800118469030046,31.578947368421048,2,0.0,Ba_V45,F,53_R,CTTTAGTTATAGGATTCCCTT,21,43.75695766670759,3.4581659940350207,33.33333333333333,3,0.2857142857142857,R,S5,A0615,Ba,,0
82565,53_F,GAGAATGATGAACTTACTT,53,19,41.415005191712574,5.800118469030046,31.578947368421048,2,0.0,Ba_V45,F,53_R,CTTTAGTTATAGGATTCCCTT,21,43.75695766670759,3.4581659940350207,33.33333333333333,3,0.2857142857142857,R,S6,A0706,Ba,,1
82566,53_F,GAGAATGATGAACTTACTT,53,19,41.415005191712574,5.800118469030046,31.578947368421048,2,0.0,Ba_V45,F,53_R,CTTTAGTTATAGGATTCCCTT,21,43.75695766670759,3.4581659940350207,33.33333333333333,3,0.2857142857142857,R,S2,A0330,Ba,,0
82567,53_F,GAGAATGATGAACTTACTT,53,19,41.415005191712574,5.800118469030046,31.578947368421048,2,0.0,Ba_V45,F,53_R,CTTTAGTTATAGGATTCCCTT,21,43.75695766670759,3.4581659940350207,33.33333333333333,3,0.2857142857142857,R,S4,A0605,Ba,,534
85219,54_F,TATGGCAATATACAAGTAC,54,19,40.90356975539629,5.3986119841896,31.578947368421048,2,0.0,Ba_5_V3,F,54_R,GTAACTGGATCAATACTCCA,20,45.9137943549265,0.3883873846593957,40.0,2,0.0,R,S144,BA-BaBTSeqBa007P2--xx-xxx-xxxx-021-SF,Ba,,993
85170,54_F,TATGGCAATATACAAGTAC,54,19,40.90356975539629,5.3986119841896,31.578947368421048,2,0.0,Ba_5_V3,F,54_R,GTAACTGGATCAATACTCCA,20,45.9137943549265,0.3883873846593957,40.0,2,0.0,R,S5,A0615,Ba,,0
85171,54_F,TATGGCAATATACAAGTAC,54,19,40.90356975539629,5.3986119841896,31.578947368421048,2,0.0,Ba_5_V3,F,54_R,GTAACTGGATCAATACTCCA,20,45.9137943549265,0.3883873846593957,40.0,2,0.0,R,S6,A0706,Ba,,0
85172,54_F,TATGGCAATATACAAGTAC,54,19,40.90356975539629,5.3986119841896,31.578947368421048,2,0.0,Ba_5_V3,F,54_R,GTAACTGGATCAATACTCCA,20,45.9137943549265,0.3883873846593957,40.0,2,0.0,R,S2,A0330,Ba,,0
85173,54_F,TATGGCAATATACAAGTAC,54,19,40.90356975539629,5.3986119841896,31.578947368421048,2,0.0,Ba_5_V3,F,54_R,GTAACTGGATCAATACTCCA,20,45.9137943549265,0.3883873846593957,40.0,2,0.0,R,S4,A0605,Ba,,41
85142,54_F,TATGGCAATATACAAGTAC,54,19,40.90356975539629,5.3986119841896,31.578947368421048,2,0.0,Ba_4,F,54_R,GTAACTGGATCAATACTCCA,20,45.9137943549265,0.3883873846593957,40.0,2,0.0,R,S144,BA-BaBTSeqBa007P2--xx-xxx-xxxx-021-SF,Ba,,993
85296,54_F,GAGATTCGGGATGTTTCA,54,18,45.924477373074865,1.3185862524407457,44.444444444444436,3,0.3333333333333333,Ba_6_V4,F,54_R,GAATGCTTGTAACATTAATCAGT,23,47.646323780595644,0.4032601550800408,30.434782608695656,2,0.0,R,S144,BA-BaBTSeqBa007P2--xx-xxx-xxxx-021-SF,Ba,,993
85250,54_F,GAGATTCGGGATGTTTCA,54,18,45.924477373074865,1.3185862524407457,44.444444444444436,3,0.3333333333333333,Ba_6_V4,F,54_R,GAATGCTTGTAACATTAATCAGT,23,47.646323780595644,0.4032601550800408,30.434782608695656,2,0.0,R,S4,A0605,Ba,,41
85249,54_F,GAGATTCGGGATGTTTCA,54,18,45.924477373074865,1.3185862524407457,44.444444444444436,3,0.3333333333333333,Ba_6_V4,F,54_R,GAATGCTTGTAACATTAATCAGT,23,47.646323780595644,0.4032601550800408,30.434782608695656,2,0.0,R,S2,A0330,Ba,,0
85248,54_F,GAGATTCGGGATGTTTCA,54,18,45.924477373074865,1.3185862524407457,44.444444444444436,3,0.3333333333333333,Ba_6_V4,F,54_R,GAATGCTTGTAACATTAATCAGT,23,47.646323780595644,0.4032601550800408,30.434782608695656,2,0.0,R,S6,A0706,Ba,,0
85247,54_F,GAGATTCGGGATGTTTCA,54,18,45.924477373074865,1.3185862524407457,44.444444444444436,3,0.3333333333333333,Ba_6_V4,F,54_R,GAATGCTTGTAACATTAATCAGT,23,47.646323780595644,0.4032601550800408,30.434782608695656,2,0.0,R,S5,A0615,Ba,,0
85373,54_F,GAGATTCGGGATGTTTCA,54,18,45.924477373074865,1.290646287667748,44.444444444444436,3,0.3333333333333333,Ba_V45,F,54_R,GAATGCTTGTAACATTAATCAGT,23,47.646323780595644,0.4312001198530382,30.434782608695656,2,0.0,R,S144,BA-BaBTSeqBa007P2--xx-xxx-xxxx-021-SF,Ba,,993
85327,54_F,GAGATTCGGGATGTTTCA,54,18,45.924477373074865,1.290646287667748,44.444444444444436,3,0.3333333333333333,Ba_V45,F,54_R,GAATGCTTGTAACATTAATCAGT,23,47.646323780595644,0.4312001198530382,30.434782608695656,2,0.0,R,S4,A0605,Ba,,41
85326,54_F,GAGATTCGGGATGTTTCA,54,18,45.924477373074865,1.290646287667748,44.444444444444436,3,0.3333333333333333,Ba_V45,F,54_R,GAATGCTTGTAACATTAATCAGT,23,47.646323780595644,0.4312001198530382,30.434782608695656,2,0.0,R,S2,A0330,Ba,,0
85325,54_F,GAGATTCGGGATGTTTCA,54,18,45.924477373074865,1.290646287667748,44.444444444444436,3,0.3333333333333333,Ba_V45,F,54_R,GAATGCTTGTAACATTAATCAGT,23,47.646323780595644,0.4312001198530382,30.434782608695656,2,0.0,R,S6,A0706,Ba,,0
85324,54_F,GAGATTCGGGATGTTTCA,54,18,45.924477373074865,1.290646287667748,44.444444444444436,3,0.3333333333333333,Ba_V45,F,54_R,GAATGCTTGTAACATTAATCAGT,23,47.646323780595644,0.4312001198530382,30.434782608695656,2,0.0,R,S5,A0615,Ba,,0
84939,54_F,CCTACACAAGAGAATATTATAG,54,22,43.071897475227054,1.7644106505299533,31.818181818181817,2,0.0,Ba_2,F,54_R,TCAATTCAAAATGGCATC,18,42.87353411207136,1.962774013685646,33.33333333333333,4,0.2222222222222222,R,S5,A0615,Ba,,0
84940,54_F,CCTACACAAGAGAATATTATAG,54,22,43.071897475227054,1.7644106505299533,31.818181818181817,2,0.0,Ba_2,F,54_R,TCAATTCAAAATGGCATC,18,42.87353411207136,1.962774013685646,33.33333333333333,4,0.2222222222222222,R,S6,A0706,Ba,,0
84941,54_F,CCTACACAAGAGAATATTATAG,54,22,43.071897475227054,1.7644106505299533,31.818181818181817,2,0.0,Ba_2,F,54_R,TCAATTCAAAATGGCATC,18,42.87353411207136,1.962774013685646,33.33333333333333,4,0.2222222222222222,R,S2,A0330,Ba,,0
84942,54_F,CCTACACAAGAGAATATTATAG,54,22,43.071897475227054,1.7644106505299533,31.818181818181817,2,0.0,Ba_2,F,54_R,TCAATTCAAAATGGCATC,18,42.87353411207136,1.962774013685646,33.33333333333333,4,0.2222222222222222,R,S4,A0605,Ba,,41
84911,54_F,CCTACACAAGAGAATATTATAG,54,22,43.071897475227054,1.7644106505299533,31.818181818181817,2,0.0,Ba_1,F,54_R,TCAATTCAAAATGGCATC,18,42.87353411207136,1.962774013685646,33.33333333333333,4,0.2222222222222222,R,S144,BA-BaBTSeqBa007P2--xx-xxx-xxxx-021-SF,Ba,,993
85016,54_F,CCTACACAAGAGAATATTATAG,54,22,43.071897475227054,1.7644106505299533,31.818181818181817,2,0.0,Ba_3,F,54_R,TCAATTCAAAATGGCATC,18,42.87353411207136,1.962774013685646,33.33333333333333,4,0.2222222222222222,R,S5,A0615,Ba,,0
85017,54_F,CCTACACAAGAGAATATTATAG,54,22,43.071897475227054,1.7644106505299533,31.818181818181817,2,0.0,Ba_3,F,54_R,TCAATTCAAAATGGCATC,18,42.87353411207136,1.962774013685646,33.33333333333333,4,0.2222222222222222,R,S6,A0706,Ba,,0
85018,54_F,CCTACACAAGAGAATATTATAG,54,22,43.071897475227054,1.7644106505299533,31.818181818181817,2,0.0,Ba_3,F,54_R,TCAATTCAAAATGGCATC,18,42.87353411207136,1.962774013685646,33.33333333333333,4,0.2222222222222222,R,S2,A0330,Ba,,0
85019,54_F,CCTACACAAGAGAATATTATAG,54,22,43.071897475227054,1.7644106505299533,31.818181818181817,2,0.0,Ba_3,F,54_R,TCAATTCAAAATGGCATC,18,42.87353411207136,1.962774013685646,33.33333333333333,4,0.2222222222222222,R,S4,A0605,Ba,,41
84988,54_F,CCTACACAAGAGAATATTATAG,54,22,43.071897475227054,1.7644106505299533,31.818181818181817,2,0.0,Ba_2,F,54_R,TCAATTCAAAATGGCATC,18,42.87353411207136,1.962774013685646,33.33333333333333,4,0.2222222222222222,R,S144,BA-BaBTSeqBa007P2--xx-xxx-xxxx-021-SF,Ba,,993
85094,54_F,TATGGCAATATACAAGTAC,54,19,40.90356975539629,5.3986119841896,31.578947368421048,2,0.0,Ba_4,F,54_R,GTAACTGGATCAATACTCCA,20,45.9137943549265,0.3883873846593957,40.0,2,0.0,R,S6,A0706,Ba,,0
85093,54_F,TATGGCAATATACAAGTAC,54,19,40.90356975539629,5.3986119841896,31.578947368421048,2,0.0,Ba_4,F,54_R,GTAACTGGATCAATACTCCA,20,45.9137943549265,0.3883873846593957,40.0,2,0.0,R,S5,A0615,Ba,,0
85096,54_F,TATGGCAATATACAAGTAC,54,19,40.90356975539629,5.3986119841896,31.578947368421048,2,0.0,Ba_4,F,54_R,GTAACTGGATCAATACTCCA,20,45.9137943549265,0.3883873846593957,40.0,2,0.0,R,S4,A0605,Ba,,41
85065,54_F,CCTACACAAGAGAATATTATAG,54,22,43.071897475227054,1.7644106505299533,31.818181818181817,2,0.0,Ba_3,F,54_R,TCAATTCAAAATGGCATC,18,42.87353411207136,1.962774013685646,33.33333333333333,4,0.2222222222222222,R,S144,BA-BaBTSeqBa007P2--xx-xxx-xxxx-021-SF,Ba,,993
85095,54_F,TATGGCAATATACAAGTAC,54,19,40.90356975539629,5.3986119841896,31.578947368421048,2,0.0,Ba_4,F,54_R,GTAACTGGATCAATACTCCA,20,45.9137943549265,0.3883873846593957,40.0,2,0.0,R,S2,A0330,Ba,,0
84865,54_F,CCTACACAAGAGAATATTATAG,54,22,43.071897475227054,1.7644106505299533,31.818181818181817,2,0.0,Ba_1,F,54_R,TCAATTCAAAATGGCATC,18,42.87353411207136,1.962774013685646,33.33333333333333,4,0.2222222222222222,R,S4,A0605,Ba,,41
84864,54_F,CCTACACAAGAGAATATTATAG,54,22,43.071897475227054,1.7644106505299533,31.818181818181817,2,0.0,Ba_1,F,54_R,TCAATTCAAAATGGCATC,18,42.87353411207136,1.962774013685646,33.33333333333333,4,0.2222222222222222,R,S2,A0330,Ba,,0
84863,54_F,CCTACACAAGAGAATATTATAG,54,22,43.071897475227054,1.7644106505299533,31.818181818181817,2,0.0,Ba_1,F,54_R,TCAATTCAAAATGGCATC,18,42.87353411207136,1.962774013685646,33.33333333333333,4,0.2222222222222222,R,S6,A0706,Ba,,0
84862,54_F,CCTACACAAGAGAATATTATAG,54,22,43.071897475227054,1.7644106505299533,31.818181818181817,2,0.0,Ba_1,F,54_R,TCAATTCAAAATGGCATC,18,42.87353411207136,1.962774013685646,33.33333333333333,4,0.2222222222222222,R,S5,A0615,Ba,,0
94715,55_F,GTATGTTATGCCAATTTTTCTCC,55,23,48.566139174040025,2.263957434454128,34.78260869565217,5,0.21739130434782608,Ba_5_V3,F,55_R,GTTGTATATGGCCGTAA,17,42.43389411240025,3.868287627185637,41.17647058823529,2,0.0,R,S5,A0615,Ba,,0
94716,55_F,GTATGTTATGCCAATTTTTCTCC,55,23,48.566139174040025,2.263957434454128,34.78260869565217,5,0.21739130434782608,Ba_5_V3,F,55_R,GTTGTATATGGCCGTAA,17,42.43389411240025,3.868287627185637,41.17647058823529,2,0.0,R,S4,A0605,Ba,,54
94717,55_F,GTATGTTATGCCAATTTTTCTCC,55,23,48.566139174040025,2.263957434454128,34.78260869565217,5,0.21739130434782608,Ba_5_V3,F,55_R,GTTGTATATGGCCGTAA,17,42.43389411240025,3.868287627185637,41.17647058823529,2,0.0,R,S6,A0706,Ba,,0
94718,55_F,GTATGTTATGCCAATTTTTCTCC,55,23,48.566139174040025,2.263957434454128,34.78260869565217,5,0.21739130434782608,Ba_5_V3,F,55_R,GTTGTATATGGCCGTAA,17,42.43389411240025,3.868287627185637,41.17647058823529,2,0.0,R,S2,A0330,Ba,,0
94645,55_F,GTATGTTATGCCAATTTTTCTCC,55,23,48.566139174040025,2.0936217269268056,34.78260869565217,5,0.21739130434782608,Ba_5_V35,F,55_R,GTTGTATATGGCCGTAA,17,42.43389411240025,4.038623334712959,41.17647058823529,2,0.0,R,S5,A0615,Ba,,0
94646,55_F,GTATGTTATGCCAATTTTTCTCC,55,23,48.566139174040025,2.0936217269268056,34.78260869565217,5,0.21739130434782608,Ba_5_V35,F,55_R,GTTGTATATGGCCGTAA,17,42.43389411240025,4.038623334712959,41.17647058823529,2,0.0,R,S4,A0605,Ba,,54
94647,55_F,GTATGTTATGCCAATTTTTCTCC,55,23,48.566139174040025,2.0936217269268056,34.78260869565217,5,0.21739130434782608,Ba_5_V35,F,55_R,GTTGTATATGGCCGTAA,17,42.43389411240025,4.038623334712959,41.17647058823529,2,0.0,R,S6,A0706,Ba,,0
94648,55_F,GTATGTTATGCCAATTTTTCTCC,55,23,48.566139174040025,2.0936217269268056,34.78260869565217,5,0.21739130434782608,Ba_5_V35,F,55_R,GTTGTATATGGCCGTAA,17,42.43389411240025,4.038623334712959,41.17647058823529,2,0.0,R,S2,A0330,Ba,,0
94856,55_F,TCTCTATTACAATCAGTCGTT,55,21,46.007313426379035,1.2078102343635848,33.33333333333333,2,0.0,Ba_V45,F,55_R,CAAAAGCGCAGCCGAAA,17,51.388399739535096,4.173276078792476,52.941176470588246,4,0.4117647058823529,R,S4,A0605,Ba,,54
94857,55_F,TCTCTATTACAATCAGTCGTT,55,21,46.007313426379035,1.2078102343635848,33.33333333333333,2,0.0,Ba_V45,F,55_R,CAAAAGCGCAGCCGAAA,17,51.388399739535096,4.173276078792476,52.941176470588246,4,0.4117647058823529,R,S6,A0706,Ba,,0
94858,55_F,TCTCTATTACAATCAGTCGTT,55,21,46.007313426379035,1.2078102343635848,33.33333333333333,2,0.0,Ba_V45,F,55_R,CAAAAGCGCAGCCGAAA,17,51.388399739535096,4.173276078792476,52.941176470588246,4,0.4117647058823529,R,S2,A0330,Ba,,0
94855,55_F,TCTCTATTACAATCAGTCGTT,55,21,46.007313426379035,1.2078102343635848,33.33333333333333,2,0.0,Ba_V45,F,55_R,CAAAAGCGCAGCCGAAA,17,51.388399739535096,4.173276078792476,52.941176470588246,4,0.4117647058823529,R,S5,A0615,Ba,,0
94785,55_F,TCTCTATTACAATCAGTCGTT,55,21,46.007313426379035,1.2357501991365822,33.33333333333333,2,0.0,Ba_6_V4,F,55_R,CAAAAGCGCAGCCGAAA,17,51.388399739535096,4.145336114019479,52.941176470588246,4,0.4117647058823529,R,S5,A0615,Ba,,0
94786,55_F,TCTCTATTACAATCAGTCGTT,55,21,46.007313426379035,1.2357501991365822,33.33333333333333,2,0.0,Ba_6_V4,F,55_R,CAAAAGCGCAGCCGAAA,17,51.388399739535096,4.145336114019479,52.941176470588246,4,0.4117647058823529,R,S4,A0605,Ba,,54
94787,55_F,TCTCTATTACAATCAGTCGTT,55,21,46.007313426379035,1.2357501991365822,33.33333333333333,2,0.0,Ba_6_V4,F,55_R,CAAAAGCGCAGCCGAAA,17,51.388399739535096,4.145336114019479,52.941176470588246,4,0.4117647058823529,R,S6,A0706,Ba,,0
94788,55_F,TCTCTATTACAATCAGTCGTT,55,21,46.007313426379035,1.2357501991365822,33.33333333333333,2,0.0,Ba_6_V4,F,55_R,CAAAAGCGCAGCCGAAA,17,51.388399739535096,4.145336114019479,52.941176470588246,4,0.4117647058823529,R,S2,A0330,Ba,,0
94438,55_F,GTCTTATAACTATGACAACA,55,20,41.78745831373698,3.048849812020024,30.0,2,0.0,Ba_2,F,55_R,AGATGGGAAATATGGTTTAA,20,43.31632330934701,1.5199848164099876,30.0,3,0.45,R,S2,A0330,Ba,,0
94437,55_F,GTCTTATAACTATGACAACA,55,20,41.78745831373698,3.048849812020024,30.0,2,0.0,Ba_2,F,55_R,AGATGGGAAATATGGTTTAA,20,43.31632330934701,1.5199848164099876,30.0,3,0.45,R,S6,A0706,Ba,,0
94436,55_F,GTCTTATAACTATGACAACA,55,20,41.78745831373698,3.048849812020024,30.0,2,0.0,Ba_2,F,55_R,AGATGGGAAATATGGTTTAA,20,43.31632330934701,1.5199848164099876,30.0,3,0.45,R,S4,A0605,Ba,,54
94435,55_F,GTCTTATAACTATGACAACA,55,20,41.78745831373698,3.048849812020024,30.0,2,0.0,Ba_2,F,55_R,AGATGGGAAATATGGTTTAA,20,43.31632330934701,1.5199848164099876,30.0,3,0.45,R,S5,A0615,Ba,,0
94368,55_F,GTCTTATAACTATGACAACA,55,20,41.78745831373698,3.048849812020024,30.0,2,0.0,Ba_1,F,55_R,AGATGGGAAATATGGTTTAA,20,43.31632330934701,1.5199848164099876,30.0,3,0.45,R,S2,A0330,Ba,,0
94367,55_F,GTCTTATAACTATGACAACA,55,20,41.78745831373698,3.048849812020024,30.0,2,0.0,Ba_1,F,55_R,AGATGGGAAATATGGTTTAA,20,43.31632330934701,1.5199848164099876,30.0,3,0.45,R,S6,A0706,Ba,,0
94366,55_F,GTCTTATAACTATGACAACA,55,20,41.78745831373698,3.048849812020024,30.0,2,0.0,Ba_1,F,55_R,AGATGGGAAATATGGTTTAA,20,43.31632330934701,1.5199848164099876,30.0,3,0.45,R,S4,A0605,Ba,,54
94365,55_F,GTCTTATAACTATGACAACA,55,20,41.78745831373698,3.048849812020024,30.0,2,0.0,Ba_1,F,55_R,AGATGGGAAATATGGTTTAA,20,43.31632330934701,1.5199848164099876,30.0,3,0.45,R,S5,A0615,Ba,,0
94578,55_F,GTATGTTATGCCAATTTTTCTCC,55,23,48.566139174040025,2.263957434454128,34.78260869565217,5,0.21739130434782608,Ba_4,F,55_R,GTTGTATATGGCCGTAA,17,42.43389411240025,3.868287627185637,41.17647058823529,2,0.0,R,S2,A0330,Ba,,0
94577,55_F,GTATGTTATGCCAATTTTTCTCC,55,23,48.566139174040025,2.263957434454128,34.78260869565217,5,0.21739130434782608,Ba_4,F,55_R,GTTGTATATGGCCGTAA,17,42.43389411240025,3.868287627185637,41.17647058823529,2,0.0,R,S6,A0706,Ba,,0
94576,55_F,GTATGTTATGCCAATTTTTCTCC,55,23,48.566139174040025,2.263957434454128,34.78260869565217,5,0.21739130434782608,Ba_4,F,55_R,GTTGTATATGGCCGTAA,17,42.43389411240025,3.868287627185637,41.17647058823529,2,0.0,R,S4,A0605,Ba,,54
94575,55_F,GTATGTTATGCCAATTTTTCTCC,55,23,48.566139174040025,2.263957434454128,34.78260869565217,5,0.21739130434782608,Ba_4,F,55_R,GTTGTATATGGCCGTAA,17,42.43389411240025,3.868287627185637,41.17647058823529,2,0.0,R,S5,A0615,Ba,,0
94508,55_F,GTCTTATAACTATGACAACA,55,20,41.78745831373698,3.048849812020024,30.0,2,0.0,Ba_3,F,55_R,AGATGGGAAATATGGTTTAA,20,43.31632330934701,1.5199848164099876,30.0,3,0.45,R,S2,A0330,Ba,,0
94507,55_F,GTCTTATAACTATGACAACA,55,20,41.78745831373698,3.048849812020024,30.0,2,0.0,Ba_3,F,55_R,AGATGGGAAATATGGTTTAA,20,43.31632330934701,1.5199848164099876,30.0,3,0.45,R,S6,A0706,Ba,,0
94506,55_F,GTCTTATAACTATGACAACA,55,20,41.78745831373698,3.048849812020024,30.0,2,0.0,Ba_3,F,55_R,AGATGGGAAATATGGTTTAA,20,43.31632330934701,1.5199848164099876,30.0,3,0.45,R,S4,A0605,Ba,,54
94505,55_F,GTCTTATAACTATGACAACA,55,20,41.78745831373698,3.048849812020024,30.0,2,0.0,Ba_3,F,55_R,AGATGGGAAATATGGTTTAA,20,43.31632330934701,1.5199848164099876,30.0,3,0.45,R,S5,A0615,Ba,,0
52372,56_F,GAAACGAATGGATGCAAA,56,18,45.74415065780983,0.5580310817760648,38.888888888888886,3,0.3333333333333333,Ba_5_V3,F,56_R,AAGAGGTGGTTTCGTT,16,43.6359804247844,2.666201314801484,43.75,3,0.1875,R,S4,A0605,Ba,,71
52371,56_F,GAAACGAATGGATGCAAA,56,18,45.74415065780983,0.5580310817760648,38.888888888888886,3,0.3333333333333333,Ba_5_V3,F,56_R,AAGAGGTGGTTTCGTT,16,43.6359804247844,2.666201314801484,43.75,3,0.1875,R,S5,A0615,Ba,,0
52438,56_F,GAAACGAATGGATGCAAA,56,18,45.74415065780983,0.5580310817760648,38.888888888888886,3,0.3333333333333333,Ba_5_V3,F,56_R,AAGAGGTGGTTTCGTT,16,43.6359804247844,2.666201314801484,43.75,3,0.1875,R,S144,BA-BaBTSeqBa007P2--xx-xxx-xxxx-021-SF,Ba,,54
52370,56_F,GAAACGAATGGATGCAAA,56,18,45.74415065780983,0.5580310817760648,38.888888888888886,3,0.3333333333333333,Ba_5_V3,F,56_R,AAGAGGTGGTTTCGTT,16,43.6359804247844,2.666201314801484,43.75,3,0.1875,R,S6,A0706,Ba,,0
52280,56_F,GAAACGAATGGATGCAAA,56,18,45.74415065780983,0.7283667893033865,38.888888888888886,3,0.3333333333333333,Ba_5_V35,F,56_R,AAGAGGTGGTTTCGTT,16,43.6359804247844,2.8365370223288053,43.75,3,0.1875,R,S4,A0605,Ba,,71
52369,56_F,GAAACGAATGGATGCAAA,56,18,45.74415065780983,0.5580310817760648,38.888888888888886,3,0.3333333333333333,Ba_5_V3,F,56_R,AAGAGGTGGTTTCGTT,16,43.6359804247844,2.666201314801484,43.75,3,0.1875,R,S2,A0330,Ba,,0