,Primer_Name_L,Seq_L,Amplicon,Primer_Length_L,Tm_L,Delta Tm_L,GC_Content_L,Length_Longest_Homopolymer_L,Percent_Homopolymer_L,exp,flank_L,Primer_Name_R,Seq_R,Primer_Length_R,Tm_R,Delta Tm_R,GC_Content_R,Length_Longest_Homopolymer_R,Percent_Homopolymer_R,flank_R,sample_id,sample_name,species,strain,n_reads
45287,14_F,ATCTTCGTCATCACCAATCGG,14,21,52.40360823906468,1.2373965843805692,47.61904761904761,2,0.0,Yp_1_V2,F,14_R,GCGCACTATCCGTATTCC,18,49.927063779816315,1.239147874867804,55.555555555555564,2,0.0,R,S144,BA-BaBTSeqBa007P2--xx-xxx-xxxx-021-SF,Ba,,480
45444,14_F,ATCTTCGTCATCACCAATCGG,14,21,52.40360823906468,0.9787184864219968,47.61904761904761,2,0.0,Yp_1,F,14_R,GCGCACTATCCGTATTCC,18,49.927063779816315,1.4978259728263763,55.555555555555564,2,0.0,R,S144,BA-BaBTSeqBa007P2--xx-xxx-xxxx-021-SF,Ba,,480
45527,14_F,TCTTCGTCATCACCAATCG,14,19,49.43609971851032,2.5611305019740698,47.368421052631575,2,0.0,Yp_2,F,14_R,CTATTACTCGTTCGATTGCAGAC,23,51.771522888830596,0.2257073316538012,43.47826086956522,2,0.0,R,S5,A0615,Ba,,137
45526,14_F,TCTTCGTCATCACCAATCG,14,19,49.43609971851032,2.5611305019740698,47.368421052631575,2,0.0,Yp_2,F,14_R,CTATTACTCGTTCGATTGCAGAC,23,51.771522888830596,0.2257073316538012,43.47826086956522,2,0.0,R,S2,A0330,Ba,,81
45525,14_F,TCTTCGTCATCACCAATCG,14,19,49.43609971851032,2.5611305019740698,47.368421052631575,2,0.0,Yp_2,F,14_R,CTATTACTCGTTCGATTGCAGAC,23,51.771522888830596,0.2257073316538012,43.47826086956522,2,0.0,R,S4,A0605,Ba,,8876
45524,14_F,TCTTCGTCATCACCAATCG,14,19,49.43609971851032,2.5611305019740698,47.368421052631575,2,0.0,Yp_2,F,14_R,CTATTACTCGTTCGATTGCAGAC,23,51.771522888830596,0.2257073316538012,43.47826086956522,2,0.0,R,S6,A0706,Ba,,115
16287,15_F,AATGAGCAAGTACAGAAAGAGGAA,15,24,52.15578219542033,1.4406975886175388,37.5,3,0.125,Ba_OkX,F,15_R,TGTTAGAACGCAACCTT,17,45.1688975819079,5.546187024894876,41.17647058823529,2,0.0,R,S5,A0615,Ba,,226
16286,15_F,AATGAGCAAGTACAGAAAGAGGAA,15,24,52.15578219542033,1.4406975886175388,37.5,3,0.125,Ba_OkX,F,15_R,TGTTAGAACGCAACCTT,17,45.1688975819079,5.546187024894876,41.17647058823529,2,0.0,R,S2,A0330,Ba,,89
16284,15_F,AATGAGCAAGTACAGAAAGAGGAA,15,24,52.15578219542033,1.4406975886175388,37.5,3,0.125,Ba_OkX,F,15_R,TGTTAGAACGCAACCTT,17,45.1688975819079,5.546187024894876,41.17647058823529,2,0.0,R,S6,A0706,Ba,,132
16285,15_F,AATGAGCAAGTACAGAAAGAGGAA,15,24,52.15578219542033,1.4406975886175388,37.5,3,0.125,Ba_OkX,F,15_R,TGTTAGAACGCAACCTT,17,45.1688975819079,5.546187024894876,41.17647058823529,2,0.0,R,S4,A0605,Ba,,8235
16349,15_F,AATGAGCAAGTACAGAAAGAGGAA,15,24,52.15578219542033,1.4406975886175388,37.5,3,0.125,Ba_OkX,F,15_R,TGTTAGAACGCAACCTT,17,45.1688975819079,5.546187024894876,41.17647058823529,2,0.0,R,S144,BA-BaBTSeqBa007P2--xx-xxx-xxxx-021-SF,Ba,,1529
16480,15_F,GTTATTTGCACGGTCATA,15,18,44.46456574012001,2.7505579206226045,38.888888888888886,3,0.16666666666666666,Ba_V45,F,15_R,GTGCATGCTTCTTCTTAC,18,45.6443853991441,1.570738261598528,44.444444444444436,2,0.0,R,S6,A0706,Ba,,132
16481,15_F,GTTATTTGCACGGTCATA,15,18,44.46456574012001,2.7505579206226045,38.888888888888886,3,0.16666666666666666,Ba_V45,F,15_R,GTGCATGCTTCTTCTTAC,18,45.6443853991441,1.570738261598528,44.444444444444436,2,0.0,R,S4,A0605,Ba,,8235
16482,15_F,GTTATTTGCACGGTCATA,15,18,44.46456574012001,2.7505579206226045,38.888888888888886,3,0.16666666666666666,Ba_V45,F,15_R,GTGCATGCTTCTTCTTAC,18,45.6443853991441,1.570738261598528,44.444444444444436,2,0.0,R,S2,A0330,Ba,,89
16483,15_F,GTTATTTGCACGGTCATA,15,18,44.46456574012001,2.7505579206226045,38.888888888888886,3,0.16666666666666666,Ba_V45,F,15_R,GTGCATGCTTCTTCTTAC,18,45.6443853991441,1.570738261598528,44.444444444444436,2,0.0,R,S5,A0615,Ba,,226
16545,15_F,GTTATTTGCACGGTCATA,15,18,44.46456574012001,2.7505579206226045,38.888888888888886,3,0.16666666666666666,Ba_V45,F,15_R,GTGCATGCTTCTTCTTAC,18,45.6443853991441,1.570738261598528,44.444444444444436,2,0.0,R,S144,BA-BaBTSeqBa007P2--xx-xxx-xxxx-021-SF,Ba,,1529
16153,15_F,GATTGTGAAGGCTCCTATTAGAG,15,23,50.39398683596129,1.1784269825764468,43.47826086956522,2,0.0,Ba_LowSH,F,15_R,AGCAACTCATTGTTAGAACGCAACC,25,56.60481939875138,5.032405580213627,44.0,2,0.0,R,S144,BA-BaBTSeqBa007P2--xx-xxx-xxxx-021-SF,Ba,,1529
17721,15_F,GAATAGGGAGACCATAGC,15,18,45.04266003872942,6.954570181754968,50.0,3,0.16666666666666666,Yp_2,F,15_R,TAGTCAGCAGCAGGCTCAA,19,52.79915180689437,0.801921586409982,52.631578947368425,2,0.0,R,S144,BA-BaBTSeqBa007P2--xx-xxx-xxxx-021-SF,Ba,,1529
17659,15_F,GAATAGGGAGACCATAGC,15,18,45.04266003872942,6.954570181754968,50.0,3,0.16666666666666666,Yp_2,F,15_R,TAGTCAGCAGCAGGCTCAA,19,52.79915180689437,0.801921586409982,52.631578947368425,2,0.0,R,S5,A0615,Ba,,226
17658,15_F,GAATAGGGAGACCATAGC,15,18,45.04266003872942,6.954570181754968,50.0,3,0.16666666666666666,Yp_2,F,15_R,TAGTCAGCAGCAGGCTCAA,19,52.79915180689437,0.801921586409982,52.631578947368425,2,0.0,R,S2,A0330,Ba,,89
17657,15_F,GAATAGGGAGACCATAGC,15,18,45.04266003872942,6.954570181754968,50.0,3,0.16666666666666666,Yp_2,F,15_R,TAGTCAGCAGCAGGCTCAA,19,52.79915180689437,0.801921586409982,52.631578947368425,2,0.0,R,S4,A0605,Ba,,8235
17656,15_F,GAATAGGGAGACCATAGC,15,18,45.04266003872942,6.954570181754968,50.0,3,0.16666666666666666,Yp_2,F,15_R,TAGTCAGCAGCAGGCTCAA,19,52.79915180689437,0.801921586409982,52.631578947368425,2,0.0,R,S6,A0706,Ba,,132
17525,15_F,AGCGGAGTGAATAGGGAG,15,18,49.582772966795225,1.842116785847452,55.555555555555564,3,0.16666666666666666,Yp_1,F,15_R,TTCACCTGTGGCGAGTAGATGT,22,55.465162287483395,4.04027253484071,50.0,2,0.0,R,S144,BA-BaBTSeqBa007P2--xx-xxx-xxxx-021-SF,Ba,,1529
17463,15_F,AGCGGAGTGAATAGGGAG,15,18,49.582772966795225,1.842116785847452,55.555555555555564,3,0.16666666666666666,Yp_1,F,15_R,TTCACCTGTGGCGAGTAGATGT,22,55.465162287483395,4.04027253484071,50.0,2,0.0,R,S5,A0615,Ba,,226
17462,15_F,AGCGGAGTGAATAGGGAG,15,18,49.582772966795225,1.842116785847452,55.555555555555564,3,0.16666666666666666,Yp_1,F,15_R,TTCACCTGTGGCGAGTAGATGT,22,55.465162287483395,4.04027253484071,50.0,2,0.0,R,S2,A0330,Ba,,89
17461,15_F,AGCGGAGTGAATAGGGAG,15,18,49.582772966795225,1.842116785847452,55.555555555555564,3,0.16666666666666666,Yp_1,F,15_R,TTCACCTGTGGCGAGTAGATGT,22,55.465162287483395,4.04027253484071,50.0,2,0.0,R,S4,A0605,Ba,,8235
17460,15_F,AGCGGAGTGAATAGGGAG,15,18,49.582772966795225,1.842116785847452,55.555555555555564,3,0.16666666666666666,Yp_1,F,15_R,TTCACCTGTGGCGAGTAGATGT,22,55.465162287483395,4.04027253484071,50.0,2,0.0,R,S6,A0706,Ba,,132
17133,15_F,ACAAAAGCAACAGCAAAATTCAC,15,23,52.00634130756356,1.7335654681535502,34.78260869565217,4,0.3478260869565217,Ft_2,F,15_R,TTGCTCTTGCTGATCCTTAT,20,48.56720154847875,1.70557429093126,40.0,2,0.0,R,S144,BA-BaBTSeqBa007P2--xx-xxx-xxxx-021-SF,Ba,,1529
17068,15_F,ACAAAAGCAACAGCAAAATTCAC,15,23,52.00634130756356,1.7335654681535502,34.78260869565217,4,0.3478260869565217,Ft_2,F,15_R,TTGCTCTTGCTGATCCTTAT,20,48.56720154847875,1.70557429093126,40.0,2,0.0,R,S6,A0706,Ba,,132
17069,15_F,ACAAAAGCAACAGCAAAATTCAC,15,23,52.00634130756356,1.7335654681535502,34.78260869565217,4,0.3478260869565217,Ft_2,F,15_R,TTGCTCTTGCTGATCCTTAT,20,48.56720154847875,1.70557429093126,40.0,2,0.0,R,S4,A0605,Ba,,8235
17070,15_F,ACAAAAGCAACAGCAAAATTCAC,15,23,52.00634130756356,1.7335654681535502,34.78260869565217,4,0.3478260869565217,Ft_2,F,15_R,TTGCTCTTGCTGATCCTTAT,20,48.56720154847875,1.70557429093126,40.0,2,0.0,R,S2,A0330,Ba,,89
17071,15_F,ACAAAAGCAACAGCAAAATTCAC,15,23,52.00634130756356,1.7335654681535502,34.78260869565217,4,0.3478260869565217,Ft_2,F,15_R,TTGCTCTTGCTGATCCTTAT,20,48.56720154847875,1.70557429093126,40.0,2,0.0,R,S5,A0615,Ba,,226
17329,15_F,AGCGGAGTGAATAGGGAG,15,18,49.582772966795225,1.583438687888879,55.555555555555564,3,0.16666666666666666,Yp_1_V2,F,15_R,TTCACCTGTGGCGAGTAGATGT,22,55.465162287483395,4.298950632799284,50.0,2,0.0,R,S144,BA-BaBTSeqBa007P2--xx-xxx-xxxx-021-SF,Ba,,1529
17264,15_F,AGCGGAGTGAATAGGGAG,15,18,49.582772966795225,1.583438687888879,55.555555555555564,3,0.16666666666666666,Yp_1_V2,F,15_R,TTCACCTGTGGCGAGTAGATGT,22,55.465162287483395,4.298950632799284,50.0,2,0.0,R,S6,A0706,Ba,,132
17265,15_F,AGCGGAGTGAATAGGGAG,15,18,49.582772966795225,1.583438687888879,55.555555555555564,3,0.16666666666666666,Yp_1_V2,F,15_R,TTCACCTGTGGCGAGTAGATGT,22,55.465162287483395,4.298950632799284,50.0,2,0.0,R,S4,A0605,Ba,,8235
17266,15_F,AGCGGAGTGAATAGGGAG,15,18,49.582772966795225,1.583438687888879,55.555555555555564,3,0.16666666666666666,Yp_1_V2,F,15_R,TTCACCTGTGGCGAGTAGATGT,22,55.465162287483395,4.298950632799284,50.0,2,0.0,R,S2,A0330,Ba,,89
17267,15_F,AGCGGAGTGAATAGGGAG,15,18,49.582772966795225,1.583438687888879,55.555555555555564,3,0.16666666666666666,Yp_1_V2,F,15_R,TTCACCTGTGGCGAGTAGATGT,22,55.465162287483395,4.298950632799284,50.0,2,0.0,R,S5,A0615,Ba,,226
16741,15_F,AGCAACAGCAAAATTCAC,15,18,46.26896099288007,2.5873306073439513,38.888888888888886,4,0.2222222222222222,Ft_1,F,15_R,TTGCTCTTGCTGATCCTTATT,21,49.392927004533185,0.5366354043091732,38.095238095238095,2,0.0,R,S144,BA-BaBTSeqBa007P2--xx-xxx-xxxx-021-SF,Ba,,1529
16676,15_F,AGCAACAGCAAAATTCAC,15,18,46.26896099288007,2.5873306073439513,38.888888888888886,4,0.2222222222222222,Ft_1,F,15_R,TTGCTCTTGCTGATCCTTATT,21,49.392927004533185,0.5366354043091732,38.095238095238095,2,0.0,R,S6,A0706,Ba,,132
16677,15_F,AGCAACAGCAAAATTCAC,15,18,46.26896099288007,2.5873306073439513,38.888888888888886,4,0.2222222222222222,Ft_1,F,15_R,TTGCTCTTGCTGATCCTTATT,21,49.392927004533185,0.5366354043091732,38.095238095238095,2,0.0,R,S4,A0605,Ba,,8235
16678,15_F,AGCAACAGCAAAATTCAC,15,18,46.26896099288007,2.5873306073439513,38.888888888888886,4,0.2222222222222222,Ft_1,F,15_R,TTGCTCTTGCTGATCCTTATT,21,49.392927004533185,0.5366354043091732,38.095238095238095,2,0.0,R,S2,A0330,Ba,,89
16679,15_F,AGCAACAGCAAAATTCAC,15,18,46.26896099288007,2.5873306073439513,38.888888888888886,4,0.2222222222222222,Ft_1,F,15_R,TTGCTCTTGCTGATCCTTATT,21,49.392927004533185,0.5366354043091732,38.095238095238095,2,0.0,R,S5,A0615,Ba,,226
16937,15_F,ACAAAAGCAACAGCAAAATTCAC,15,23,52.00634130756356,1.949153463749667,34.78260869565217,4,0.3478260869565217,Ft_2_V2,F,15_R,TTGCTCTTGCTGATCCTTAT,20,48.56720154847875,1.4899862953351433,40.0,2,0.0,R,S144,BA-BaBTSeqBa007P2--xx-xxx-xxxx-021-SF,Ba,,1529
16875,15_F,ACAAAAGCAACAGCAAAATTCAC,15,23,52.00634130756356,1.949153463749667,34.78260869565217,4,0.3478260869565217,Ft_2_V2,F,15_R,TTGCTCTTGCTGATCCTTAT,20,48.56720154847875,1.4899862953351433,40.0,2,0.0,R,S5,A0615,Ba,,226
16874,15_F,ACAAAAGCAACAGCAAAATTCAC,15,23,52.00634130756356,1.949153463749667,34.78260869565217,4,0.3478260869565217,Ft_2_V2,F,15_R,TTGCTCTTGCTGATCCTTAT,20,48.56720154847875,1.4899862953351433,40.0,2,0.0,R,S2,A0330,Ba,,89
16873,15_F,ACAAAAGCAACAGCAAAATTCAC,15,23,52.00634130756356,1.949153463749667,34.78260869565217,4,0.3478260869565217,Ft_2_V2,F,15_R,TTGCTCTTGCTGATCCTTAT,20,48.56720154847875,1.4899862953351433,40.0,2,0.0,R,S4,A0605,Ba,,8235
16872,15_F,ACAAAAGCAACAGCAAAATTCAC,15,23,52.00634130756356,1.949153463749667,34.78260869565217,4,0.3478260869565217,Ft_2_V2,F,15_R,TTGCTCTTGCTGATCCTTAT,20,48.56720154847875,1.4899862953351433,40.0,2,0.0,R,S6,A0706,Ba,,132
14912,15_F,TAAGAGATTGTGAAGGCTC,15,19,45.89283613972805,0.40934559985784347,42.105263157894726,2,0.0,Ba_4,F,15_R,TGTTAGAACGCAACCTTTA,19,46.39477470348402,0.09259296389812732,36.84210526315789,3,0.15789473684210525,R,S6,A0706,Ba,,132
14913,15_F,TAAGAGATTGTGAAGGCTC,15,19,45.89283613972805,0.40934559985784347,42.105263157894726,2,0.0,Ba_4,F,15_R,TGTTAGAACGCAACCTTTA,19,46.39477470348402,0.09259296389812732,36.84210526315789,3,0.15789473684210525,R,S4,A0605,Ba,,8235
14914,15_F,TAAGAGATTGTGAAGGCTC,15,19,45.89283613972805,0.40934559985784347,42.105263157894726,2,0.0,Ba_4,F,15_R,TGTTAGAACGCAACCTTTA,19,46.39477470348402,0.09259296389812732,36.84210526315789,3,0.15789473684210525,R,S2,A0330,Ba,,89
14915,15_F,TAAGAGATTGTGAAGGCTC,15,19,45.89283613972805,0.40934559985784347,42.105263157894726,2,0.0,Ba_4,F,15_R,TGTTAGAACGCAACCTTTA,19,46.39477470348402,0.09259296389812732,36.84210526315789,3,0.15789473684210525,R,S5,A0615,Ba,,226
14977,15_F,TAAGAGATTGTGAAGGCTC,15,19,45.89283613972805,0.40934559985784347,42.105263157894726,2,0.0,Ba_4,F,15_R,TGTTAGAACGCAACCTTTA,19,46.39477470348402,0.09259296389812732,36.84210526315789,3,0.15789473684210525,R,S144,BA-BaBTSeqBa007P2--xx-xxx-xxxx-021-SF,Ba,,1529
14327,15_F,GTTATTTGCACGGTCATA,15,18,44.46456574012001,0.3717423856369919,38.888888888888886,3,0.16666666666666666,Ba_1,F,15_R,GTGCATGCTTCTTCTTAC,18,45.6443853991441,0.8080772733870845,44.444444444444436,2,0.0,R,S5,A0615,Ba,,226
14326,15_F,GTTATTTGCACGGTCATA,15,18,44.46456574012001,0.3717423856369919,38.888888888888886,3,0.16666666666666666,Ba_1,F,15_R,GTGCATGCTTCTTCTTAC,18,45.6443853991441,0.8080772733870845,44.444444444444436,2,0.0,R,S2,A0330,Ba,,89
14325,15_F,GTTATTTGCACGGTCATA,15,18,44.46456574012001,0.3717423856369919,38.888888888888886,3,0.16666666666666666,Ba_1,F,15_R,GTGCATGCTTCTTCTTAC,18,45.6443853991441,0.8080772733870845,44.444444444444436,2,0.0,R,S4,A0605,Ba,,8235
14324,15_F,GTTATTTGCACGGTCATA,15,18,44.46456574012001,0.3717423856369919,38.888888888888886,3,0.16666666666666666,Ba_1,F,15_R,GTGCATGCTTCTTCTTAC,18,45.6443853991441,0.8080772733870845,44.444444444444436,2,0.0,R,S6,A0706,Ba,,132
15173,15_F,GTTATTTGCACGGTCATA,15,18,44.46456574012001,2.0079517069932042,38.888888888888886,3,0.16666666666666666,Ba_5_V35,F,15_R,GTGCATGCTTCTTCTTAC,18,45.6443853991441,0.8281320479691274,44.444444444444436,2,0.0,R,S144,BA-BaBTSeqBa007P2--xx-xxx-xxxx-021-SF,Ba,,1529
15108,15_F,GTTATTTGCACGGTCATA,15,18,44.46456574012001,2.0079517069932042,38.888888888888886,3,0.16666666666666666,Ba_5_V35,F,15_R,GTGCATGCTTCTTCTTAC,18,45.6443853991441,0.8281320479691274,44.444444444444436,2,0.0,R,S6,A0706,Ba,,132
15109,15_F,GTTATTTGCACGGTCATA,15,18,44.46456574012001,2.0079517069932042,38.888888888888886,3,0.16666666666666666,Ba_5_V35,F,15_R,GTGCATGCTTCTTCTTAC,18,45.6443853991441,0.8281320479691274,44.444444444444436,2,0.0,R,S4,A0605,Ba,,8235
15110,15_F,GTTATTTGCACGGTCATA,15,18,44.46456574012001,2.0079517069932042,38.888888888888886,3,0.16666666666666666,Ba_5_V35,F,15_R,GTGCATGCTTCTTCTTAC,18,45.6443853991441,0.8281320479691274,44.444444444444436,2,0.0,R,S2,A0330,Ba,,89
15111,15_F,GTTATTTGCACGGTCATA,15,18,44.46456574012001,2.0079517069932042,38.888888888888886,3,0.16666666666666666,Ba_5_V35,F,15_R,GTGCATGCTTCTTCTTAC,18,45.6443853991441,0.8281320479691274,44.444444444444436,2,0.0,R,S5,A0615,Ba,,226
14585,15_F,GTTATTTGCACGGTCATA,15,18,44.46456574012001,0.3717423856369919,38.888888888888886,3,0.16666666666666666,Ba_2,F,15_R,GTGCATGCTTCTTCTTAC,18,45.6443853991441,0.8080772733870845,44.444444444444436,2,0.0,R,S144,BA-BaBTSeqBa007P2--xx-xxx-xxxx-021-SF,Ba,,1529
14781,15_F,GTTATTTGCACGGTCATA,15,18,44.46456574012001,0.3717423856369919,38.888888888888886,3,0.16666666666666666,Ba_3,F,15_R,GTGCATGCTTCTTCTTAC,18,45.6443853991441,0.8080772733870845,44.444444444444436,2,0.0,R,S144,BA-BaBTSeqBa007P2--xx-xxx-xxxx-021-SF,Ba,,1529
14719,15_F,GTTATTTGCACGGTCATA,15,18,44.46456574012001,0.3717423856369919,38.888888888888886,3,0.16666666666666666,Ba_3,F,15_R,GTGCATGCTTCTTCTTAC,18,45.6443853991441,0.8080772733870845,44.444444444444436,2,0.0,R,S5,A0615,Ba,,226
14718,15_F,GTTATTTGCACGGTCATA,15,18,44.46456574012001,0.3717423856369919,38.888888888888886,3,0.16666666666666666,Ba_3,F,15_R,GTGCATGCTTCTTCTTAC,18,45.6443853991441,0.8080772733870845,44.444444444444436,2,0.0,R,S2,A0330,Ba,,89
14717,15_F,GTTATTTGCACGGTCATA,15,18,44.46456574012001,0.3717423856369919,38.888888888888886,3,0.16666666666666666,Ba_3,F,15_R,GTGCATGCTTCTTCTTAC,18,45.6443853991441,0.8080772733870845,44.444444444444436,2,0.0,R,S4,A0605,Ba,,8235
14716,15_F,GTTATTTGCACGGTCATA,15,18,44.46456574012001,0.3717423856369919,38.888888888888886,3,0.16666666666666666,Ba_3,F,15_R,GTGCATGCTTCTTCTTAC,18,45.6443853991441,0.8080772733870845,44.444444444444436,2,0.0,R,S6,A0706,Ba,,132
14389,15_F,GTTATTTGCACGGTCATA,15,18,44.46456574012001,0.3717423856369919,38.888888888888886,3,0.16666666666666666,Ba_1,F,15_R,GTGCATGCTTCTTCTTAC,18,45.6443853991441,0.8080772733870845,44.444444444444436,2,0.0,R,S144,BA-BaBTSeqBa007P2--xx-xxx-xxxx-021-SF,Ba,,1529
14523,15_F,GTTATTTGCACGGTCATA,15,18,44.46456574012001,0.3717423856369919,38.888888888888886,3,0.16666666666666666,Ba_2,F,15_R,GTGCATGCTTCTTCTTAC,18,45.6443853991441,0.8080772733870845,44.444444444444436,2,0.0,R,S5,A0615,Ba,,226
14522,15_F,GTTATTTGCACGGTCATA,15,18,44.46456574012001,0.3717423856369919,38.888888888888886,3,0.16666666666666666,Ba_2,F,15_R,GTGCATGCTTCTTCTTAC,18,45.6443853991441,0.8080772733870845,44.444444444444436,2,0.0,R,S2,A0330,Ba,,89
14521,15_F,GTTATTTGCACGGTCATA,15,18,44.46456574012001,0.3717423856369919,38.888888888888886,3,0.16666666666666666,Ba_2,F,15_R,GTGCATGCTTCTTCTTAC,18,45.6443853991441,0.8080772733870845,44.444444444444436,2,0.0,R,S4,A0605,Ba,,8235
14520,15_F,GTTATTTGCACGGTCATA,15,18,44.46456574012001,0.3717423856369919,38.888888888888886,3,0.16666666666666666,Ba_2,F,15_R,GTGCATGCTTCTTCTTAC,18,45.6443853991441,0.8080772733870845,44.444444444444436,2,0.0,R,S6,A0706,Ba,,132
15895,15_F,GATTGTGAAGGCTCCTATTAGAG,15,23,50.39398683596129,1.1284592721825533,43.47826086956522,2,0.0,Ba_HighSpec,F,15_R,AGCAACTCATTGTTAGAACGCAACC,25,56.60481939875138,5.082373290607522,44.0,2,0.0,R,S5,A0615,Ba,,226
15894,15_F,GATTGTGAAGGCTCCTATTAGAG,15,23,50.39398683596129,1.1284592721825533,43.47826086956522,2,0.0,Ba_HighSpec,F,15_R,AGCAACTCATTGTTAGAACGCAACC,25,56.60481939875138,5.082373290607522,44.0,2,0.0,R,S2,A0330,Ba,,89
15893,15_F,GATTGTGAAGGCTCCTATTAGAG,15,23,50.39398683596129,1.1284592721825533,43.47826086956522,2,0.0,Ba_HighSpec,F,15_R,AGCAACTCATTGTTAGAACGCAACC,25,56.60481939875138,5.082373290607522,44.0,2,0.0,R,S4,A0605,Ba,,8235
15892,15_F,GATTGTGAAGGCTCCTATTAGAG,15,23,50.39398683596129,1.1284592721825533,43.47826086956522,2,0.0,Ba_HighSpec,F,15_R,AGCAACTCATTGTTAGAACGCAACC,25,56.60481939875138,5.082373290607522,44.0,2,0.0,R,S6,A0706,Ba,,132
15697,15_F,GATTGTGAAGGCTCCTATTAGAG,15,23,50.39398683596129,1.9705704731780287,43.47826086956522,2,0.0,Ba_HighSH,F,15_R,AGCAACTCATTGTTAGAACGCAACC,25,56.60481939875138,4.240262089612044,44.0,2,0.0,R,S4,A0605,Ba,,8235
15698,15_F,GATTGTGAAGGCTCCTATTAGAG,15,23,50.39398683596129,1.9705704731780287,43.47826086956522,2,0.0,Ba_HighSH,F,15_R,AGCAACTCATTGTTAGAACGCAACC,25,56.60481939875138,4.240262089612044,44.0,2,0.0,R,S2,A0330,Ba,,89
15699,15_F,GATTGTGAAGGCTCCTATTAGAG,15,23,50.39398683596129,1.9705704731780287,43.47826086956522,2,0.0,Ba_HighSH,F,15_R,AGCAACTCATTGTTAGAACGCAACC,25,56.60481939875138,4.240262089612044,44.0,2,0.0,R,S5,A0615,Ba,,226
15761,15_F,GATTGTGAAGGCTCCTATTAGAG,15,23,50.39398683596129,1.9705704731780287,43.47826086956522,2,0.0,Ba_HighSH,F,15_R,AGCAACTCATTGTTAGAACGCAACC,25,56.60481939875138,4.240262089612044,44.0,2,0.0,R,S144,BA-BaBTSeqBa007P2--xx-xxx-xxxx-021-SF,Ba,,1529
16088,15_F,GATTGTGAAGGCTCCTATTAGAG,15,23,50.39398683596129,1.1784269825764468,43.47826086956522,2,0.0,Ba_LowSH,F,15_R,AGCAACTCATTGTTAGAACGCAACC,25,56.60481939875138,5.032405580213627,44.0,2,0.0,R,S6,A0706,Ba,,132
16089,15_F,GATTGTGAAGGCTCCTATTAGAG,15,23,50.39398683596129,1.1784269825764468,43.47826086956522,2,0.0,Ba_LowSH,F,15_R,AGCAACTCATTGTTAGAACGCAACC,25,56.60481939875138,5.032405580213627,44.0,2,0.0,R,S4,A0605,Ba,,8235
16090,15_F,GATTGTGAAGGCTCCTATTAGAG,15,23,50.39398683596129,1.1784269825764468,43.47826086956522,2,0.0,Ba_LowSH,F,15_R,AGCAACTCATTGTTAGAACGCAACC,25,56.60481939875138,5.032405580213627,44.0,2,0.0,R,S2,A0330,Ba,,89
16091,15_F,GATTGTGAAGGCTCCTATTAGAG,15,23,50.39398683596129,1.1784269825764468,43.47826086956522,2,0.0,Ba_LowSH,F,15_R,AGCAACTCATTGTTAGAACGCAACC,25,56.60481939875138,5.032405580213627,44.0,2,0.0,R,S5,A0615,Ba,,226
15957,15_F,GATTGTGAAGGCTCCTATTAGAG,15,23,50.39398683596129,1.1284592721825533,43.47826086956522,2,0.0,Ba_HighSpec,F,15_R,AGCAACTCATTGTTAGAACGCAACC,25,56.60481939875138,5.082373290607522,44.0,2,0.0,R,S144,BA-BaBTSeqBa007P2--xx-xxx-xxxx-021-SF,Ba,,1529
15696,15_F,GATTGTGAAGGCTCCTATTAGAG,15,23,50.39398683596129,1.9705704731780287,43.47826086956522,2,0.0,Ba_HighSH,F,15_R,AGCAACTCATTGTTAGAACGCAACC,25,56.60481939875138,4.240262089612044,44.0,2,0.0,R,S6,A0706,Ba,,132