,Primer_Name_L,Seq_L,Amplicon,Primer_Length_L,Tm_L,Delta Tm_L,GC_Content_L,Length_Longest_Homopolymer_L,Percent_Homopolymer_L,exp,flank_L,Primer_Name_R,Seq_R,Primer_Length_R,Tm_R,Delta Tm_R,GC_Content_R,Length_Longest_Homopolymer_R,Percent_Homopolymer_R,flank_R,sample_id,sample_name,species,strain,n_reads
91435,40_F,TAACATATGGAGGGACAACA,40,20,47.420909241339935,2.584601115582928,40.0,3,0.15,Ba_1,F,40_R,AATAGCCTCTCTCTGAAAA,19,44.54366733101858,0.2926407947384177,36.84210526315789,4,0.21052631578947367,R,S2,A0330,Ba,,3
91436,40_F,TAACATATGGAGGGACAACA,40,20,47.420909241339935,2.584601115582928,40.0,3,0.15,Ba_1,F,40_R,AATAGCCTCTCTCTGAAAA,19,44.54366733101858,0.2926407947384177,36.84210526315789,4,0.21052631578947367,R,S4,A0605,Ba,,4806
91437,40_F,TAACATATGGAGGGACAACA,40,20,47.420909241339935,2.584601115582928,40.0,3,0.15,Ba_1,F,40_R,AATAGCCTCTCTCTGAAAA,19,44.54366733101858,0.2926407947384177,36.84210526315789,4,0.21052631578947367,R,S5,A0615,Ba,,6
91639,40_F,TAACATATGGAGGGACAACA,40,20,47.420909241339935,2.584601115582928,40.0,3,0.15,Ba_2,F,40_R,AATAGCCTCTCTCTGAAAA,19,44.54366733101858,0.2926407947384177,36.84210526315789,4,0.21052631578947367,R,S144,BA-BaBTSeqBa007P2--xx-xxx-xxxx-021-SF,Ba,,608
91768,40_F,TAACATATGGAGGGACAACA,40,20,47.420909241339935,2.584601115582928,40.0,3,0.15,Ba_3,F,40_R,AATAGCCTCTCTCTGAAAA,19,44.54366733101858,0.2926407947384177,36.84210526315789,4,0.21052631578947367,R,S144,BA-BaBTSeqBa007P2--xx-xxx-xxxx-021-SF,Ba,,608
91565,40_F,TAACATATGGAGGGACAACA,40,20,47.420909241339935,2.584601115582928,40.0,3,0.15,Ba_2,F,40_R,AATAGCCTCTCTCTGAAAA,19,44.54366733101858,0.2926407947384177,36.84210526315789,4,0.21052631578947367,R,S4,A0605,Ba,,4806
91566,40_F,TAACATATGGAGGGACAACA,40,20,47.420909241339935,2.584601115582928,40.0,3,0.15,Ba_2,F,40_R,AATAGCCTCTCTCTGAAAA,19,44.54366733101858,0.2926407947384177,36.84210526315789,4,0.21052631578947367,R,S5,A0615,Ba,,6
91564,40_F,TAACATATGGAGGGACAACA,40,20,47.420909241339935,2.584601115582928,40.0,3,0.15,Ba_2,F,40_R,AATAGCCTCTCTCTGAAAA,19,44.54366733101858,0.2926407947384177,36.84210526315789,4,0.21052631578947367,R,S2,A0330,Ba,,3
91563,40_F,TAACATATGGAGGGACAACA,40,20,47.420909241339935,2.584601115582928,40.0,3,0.15,Ba_2,F,40_R,AATAGCCTCTCTCTGAAAA,19,44.54366733101858,0.2926407947384177,36.84210526315789,4,0.21052631578947367,R,S6,A0706,Ba,,17
91510,40_F,TAACATATGGAGGGACAACA,40,20,47.420909241339935,2.584601115582928,40.0,3,0.15,Ba_1,F,40_R,AATAGCCTCTCTCTGAAAA,19,44.54366733101858,0.2926407947384177,36.84210526315789,4,0.21052631578947367,R,S144,BA-BaBTSeqBa007P2--xx-xxx-xxxx-021-SF,Ba,,608
92026,40_F,TAACATATGGAGGGACAACA,40,20,47.420909241339935,0.9483917942267156,40.0,3,0.15,Ba_5_V35,F,40_R,AATAGCCTCTCTCTGAAAA,19,44.54366733101858,1.9288501160946296,36.84210526315789,4,0.21052631578947367,R,S144,BA-BaBTSeqBa007P2--xx-xxx-xxxx-021-SF,Ba,,608
92079,40_F,TAACATATGGAGGGACAACA,40,20,47.420909241339935,1.1187275017540372,40.0,3,0.15,Ba_5_V3,F,40_R,AATAGCCTCTCTCTGAAAA,19,44.54366733101858,1.7585144085673081,36.84210526315789,4,0.21052631578947367,R,S6,A0706,Ba,,17
92080,40_F,TAACATATGGAGGGACAACA,40,20,47.420909241339935,1.1187275017540372,40.0,3,0.15,Ba_5_V3,F,40_R,AATAGCCTCTCTCTGAAAA,19,44.54366733101858,1.7585144085673081,36.84210526315789,4,0.21052631578947367,R,S2,A0330,Ba,,3
92082,40_F,TAACATATGGAGGGACAACA,40,20,47.420909241339935,1.1187275017540372,40.0,3,0.15,Ba_5_V3,F,40_R,AATAGCCTCTCTCTGAAAA,19,44.54366733101858,1.7585144085673081,36.84210526315789,4,0.21052631578947367,R,S5,A0615,Ba,,6
92081,40_F,TAACATATGGAGGGACAACA,40,20,47.420909241339935,1.1187275017540372,40.0,3,0.15,Ba_5_V3,F,40_R,AATAGCCTCTCTCTGAAAA,19,44.54366733101858,1.7585144085673081,36.84210526315789,4,0.21052631578947367,R,S4,A0605,Ba,,4806
91824,40_F,TAACATATGGAGGGACAACA,40,20,47.420909241339935,1.1187275017540372,40.0,3,0.15,Ba_4,F,40_R,AATAGCCTCTCTCTGAAAA,19,44.54366733101858,1.7585144085673081,36.84210526315789,4,0.21052631578947367,R,S5,A0615,Ba,,6
91823,40_F,TAACATATGGAGGGACAACA,40,20,47.420909241339935,1.1187275017540372,40.0,3,0.15,Ba_4,F,40_R,AATAGCCTCTCTCTGAAAA,19,44.54366733101858,1.7585144085673081,36.84210526315789,4,0.21052631578947367,R,S4,A0605,Ba,,4806
91822,40_F,TAACATATGGAGGGACAACA,40,20,47.420909241339935,1.1187275017540372,40.0,3,0.15,Ba_4,F,40_R,AATAGCCTCTCTCTGAAAA,19,44.54366733101858,1.7585144085673081,36.84210526315789,4,0.21052631578947367,R,S2,A0330,Ba,,3
91821,40_F,TAACATATGGAGGGACAACA,40,20,47.420909241339935,1.1187275017540372,40.0,3,0.15,Ba_4,F,40_R,AATAGCCTCTCTCTGAAAA,19,44.54366733101858,1.7585144085673081,36.84210526315789,4,0.21052631578947367,R,S6,A0706,Ba,,17
91953,40_F,TAACATATGGAGGGACAACA,40,20,47.420909241339935,0.9483917942267156,40.0,3,0.15,Ba_5_V35,F,40_R,AATAGCCTCTCTCTGAAAA,19,44.54366733101858,1.9288501160946296,36.84210526315789,4,0.21052631578947367,R,S5,A0615,Ba,,6
91952,40_F,TAACATATGGAGGGACAACA,40,20,47.420909241339935,0.9483917942267156,40.0,3,0.15,Ba_5_V35,F,40_R,AATAGCCTCTCTCTGAAAA,19,44.54366733101858,1.9288501160946296,36.84210526315789,4,0.21052631578947367,R,S4,A0605,Ba,,4806
91951,40_F,TAACATATGGAGGGACAACA,40,20,47.420909241339935,0.9483917942267156,40.0,3,0.15,Ba_5_V35,F,40_R,AATAGCCTCTCTCTGAAAA,19,44.54366733101858,1.9288501160946296,36.84210526315789,4,0.21052631578947367,R,S2,A0330,Ba,,3
91950,40_F,TAACATATGGAGGGACAACA,40,20,47.420909241339935,0.9483917942267156,40.0,3,0.15,Ba_5_V35,F,40_R,AATAGCCTCTCTCTGAAAA,19,44.54366733101858,1.9288501160946296,36.84210526315789,4,0.21052631578947367,R,S6,A0706,Ba,,17
91897,40_F,TAACATATGGAGGGACAACA,40,20,47.420909241339935,1.1187275017540372,40.0,3,0.15,Ba_4,F,40_R,AATAGCCTCTCTCTGAAAA,19,44.54366733101858,1.7585144085673081,36.84210526315789,4,0.21052631578947367,R,S144,BA-BaBTSeqBa007P2--xx-xxx-xxxx-021-SF,Ba,,608
78526,41_F,TAAAGCAAATAACGGTACGAAAG,41,23,49.90318697458577,2.688063313843152,34.78260869565217,3,0.39130434782608703,Ba_V45,F,41_R,TATTGAACTGACTCTTGTGCCC,22,52.456829687055226,5.24170602631262,45.45454545454545,3,0.13636363636363635,R,S2,A0330,Ba,,0
78525,41_F,TAAAGCAAATAACGGTACGAAAG,41,23,49.90318697458577,2.688063313843152,34.78260869565217,3,0.39130434782608703,Ba_V45,F,41_R,TATTGAACTGACTCTTGTGCCC,22,52.456829687055226,5.24170602631262,45.45454545454545,3,0.13636363636363635,R,S6,A0706,Ba,,0
78524,41_F,TAAAGCAAATAACGGTACGAAAG,41,23,49.90318697458577,2.688063313843152,34.78260869565217,3,0.39130434782608703,Ba_V45,F,41_R,TATTGAACTGACTCTTGTGCCC,22,52.456829687055226,5.24170602631262,45.45454545454545,3,0.13636363636363635,R,S5,A0615,Ba,,0
78523,41_F,TAAAGCAAATAACGGTACGAAAG,41,23,49.90318697458577,2.688063313843152,34.78260869565217,3,0.39130434782608703,Ba_V45,F,41_R,TATTGAACTGACTCTTGTGCCC,22,52.456829687055226,5.24170602631262,45.45454545454545,3,0.13636363636363635,R,S4,A0605,Ba,,59
78659,41_F,AATTACTGAATGCAGTCGGG,41,20,50.07914912584624,1.087062528837869,45.0,3,0.15,Yp_1_V2,F,41_R,TCTGGATGACTACCTGCATA,20,49.133942116896954,2.0322695377871653,45.0,2,0.0,R,S2,A0330,Ba,,0
78658,41_F,AATTACTGAATGCAGTCGGG,41,20,50.07914912584624,1.087062528837869,45.0,3,0.15,Yp_1_V2,F,41_R,TCTGGATGACTACCTGCATA,20,49.133942116896954,2.0322695377871653,45.0,2,0.0,R,S6,A0706,Ba,,0
78657,41_F,AATTACTGAATGCAGTCGGG,41,20,50.07914912584624,1.087062528837869,45.0,3,0.15,Yp_1_V2,F,41_R,TCTGGATGACTACCTGCATA,20,49.133942116896954,2.0322695377871653,45.0,2,0.0,R,S5,A0615,Ba,,0
78656,41_F,AATTACTGAATGCAGTCGGG,41,20,50.07914912584624,1.087062528837869,45.0,3,0.15,Yp_1_V2,F,41_R,TCTGGATGACTACCTGCATA,20,49.133942116896954,2.0322695377871653,45.0,2,0.0,R,S4,A0605,Ba,,59
78603,41_F,TAAAGCAAATAACGGTACGAAAG,41,23,49.90318697458577,2.688063313843152,34.78260869565217,3,0.39130434782608703,Ba_V45,F,41_R,TATTGAACTGACTCTTGTGCCC,22,52.456829687055226,5.24170602631262,45.45454545454545,3,0.13636363636363635,R,S144,BA-BaBTSeqBa007P2--xx-xxx-xxxx-021-SF,Ba,,320
78390,41_F,TAAAGCAAATAACGGTACGAAAG,41,23,49.90318697458577,2.6601233490701546,34.78260869565217,3,0.39130434782608703,Ba_6_V4,F,41_R,TATTGAACTGACTCTTGTGCCC,22,52.456829687055226,5.213766061539623,45.45454545454545,3,0.13636363636363635,R,S4,A0605,Ba,,59
78391,41_F,TAAAGCAAATAACGGTACGAAAG,41,23,49.90318697458577,2.6601233490701546,34.78260869565217,3,0.39130434782608703,Ba_6_V4,F,41_R,TATTGAACTGACTCTTGTGCCC,22,52.456829687055226,5.213766061539623,45.45454545454545,3,0.13636363636363635,R,S5,A0615,Ba,,0
78392,41_F,TAAAGCAAATAACGGTACGAAAG,41,23,49.90318697458577,2.6601233490701546,34.78260869565217,3,0.39130434782608703,Ba_6_V4,F,41_R,TATTGAACTGACTCTTGTGCCC,22,52.456829687055226,5.213766061539623,45.45454545454545,3,0.13636363636363635,R,S6,A0706,Ba,,0
78393,41_F,TAAAGCAAATAACGGTACGAAAG,41,23,49.90318697458577,2.6601233490701546,34.78260869565217,3,0.39130434782608703,Ba_6_V4,F,41_R,TATTGAACTGACTCTTGTGCCC,22,52.456829687055226,5.213766061539623,45.45454545454545,3,0.13636363636363635,R,S2,A0330,Ba,,0
78337,41_F,TAAAGCAAATAACGGTACGAAAG,41,23,49.90318697458577,3.6010052349998745,34.78260869565217,3,0.39130434782608703,Ba_5_V3,F,41_R,TATTGAACTGACTCTTGTGCCC,22,52.456829687055226,6.154647947469343,45.45454545454545,3,0.13636363636363635,R,S144,BA-BaBTSeqBa007P2--xx-xxx-xxxx-021-SF,Ba,,320
78470,41_F,TAAAGCAAATAACGGTACGAAAG,41,23,49.90318697458577,2.6601233490701546,34.78260869565217,3,0.39130434782608703,Ba_6_V4,F,41_R,TATTGAACTGACTCTTGTGCCC,22,52.456829687055226,5.213766061539623,45.45454545454545,3,0.13636363636363635,R,S144,BA-BaBTSeqBa007P2--xx-xxx-xxxx-021-SF,Ba,,320
78925,41_F,GACGGTTATCGCCGACGACCTG,41,22,59.68712686521741,7.689896644733017,63.63636363636363,2,0.0,Yp_2,F,41_R,GAAGGCGTGCAACAGACCTTA,21,55.079030216757594,3.081799996273197,52.38095238095239,2,0.0,R,S2,A0330,Ba,,0
78924,41_F,GACGGTTATCGCCGACGACCTG,41,22,59.68712686521741,7.689896644733017,63.63636363636363,2,0.0,Yp_2,F,41_R,GAAGGCGTGCAACAGACCTTA,21,55.079030216757594,3.081799996273197,52.38095238095239,2,0.0,R,S6,A0706,Ba,,0
78923,41_F,GACGGTTATCGCCGACGACCTG,41,22,59.68712686521741,7.689896644733017,63.63636363636363,2,0.0,Yp_2,F,41_R,GAAGGCGTGCAACAGACCTTA,21,55.079030216757594,3.081799996273197,52.38095238095239,2,0.0,R,S5,A0615,Ba,,0
78922,41_F,GACGGTTATCGCCGACGACCTG,41,22,59.68712686521741,7.689896644733017,63.63636363636363,2,0.0,Yp_2,F,41_R,GAAGGCGTGCAACAGACCTTA,21,55.079030216757594,3.081799996273197,52.38095238095239,2,0.0,R,S4,A0605,Ba,,59
79002,41_F,GACGGTTATCGCCGACGACCTG,41,22,59.68712686521741,7.689896644733017,63.63636363636363,2,0.0,Yp_2,F,41_R,GAAGGCGTGCAACAGACCTTA,21,55.079030216757594,3.081799996273197,52.38095238095239,2,0.0,R,S144,BA-BaBTSeqBa007P2--xx-xxx-xxxx-021-SF,Ba,,320
78736,41_F,AATTACTGAATGCAGTCGGG,41,20,50.07914912584624,1.087062528837869,45.0,3,0.15,Yp_1_V2,F,41_R,TCTGGATGACTACCTGCATA,20,49.133942116896954,2.0322695377871653,45.0,2,0.0,R,S144,BA-BaBTSeqBa007P2--xx-xxx-xxxx-021-SF,Ba,,320
78869,41_F,AATTACTGAATGCAGTCGGG,41,20,50.07914912584624,1.3457406267964416,45.0,3,0.15,Yp_1,F,41_R,TCTGGATGACTACCTGCATA,20,49.133942116896954,2.2909476357457383,45.0,2,0.0,R,S144,BA-BaBTSeqBa007P2--xx-xxx-xxxx-021-SF,Ba,,320
78792,41_F,AATTACTGAATGCAGTCGGG,41,20,50.07914912584624,1.3457406267964416,45.0,3,0.15,Yp_1,F,41_R,TCTGGATGACTACCTGCATA,20,49.133942116896954,2.2909476357457383,45.0,2,0.0,R,S2,A0330,Ba,,0
78791,41_F,AATTACTGAATGCAGTCGGG,41,20,50.07914912584624,1.3457406267964416,45.0,3,0.15,Yp_1,F,41_R,TCTGGATGACTACCTGCATA,20,49.133942116896954,2.2909476357457383,45.0,2,0.0,R,S6,A0706,Ba,,0
78790,41_F,AATTACTGAATGCAGTCGGG,41,20,50.07914912584624,1.3457406267964416,45.0,3,0.15,Yp_1,F,41_R,TCTGGATGACTACCTGCATA,20,49.133942116896954,2.2909476357457383,45.0,2,0.0,R,S5,A0615,Ba,,0
78789,41_F,AATTACTGAATGCAGTCGGG,41,20,50.07914912584624,1.3457406267964416,45.0,3,0.15,Yp_1,F,41_R,TCTGGATGACTACCTGCATA,20,49.133942116896954,2.2909476357457383,45.0,2,0.0,R,S4,A0605,Ba,,59
77861,41_F,TGCATATATTAATTCCAGC,41,19,41.97823425218753,2.8580738735694813,31.578947368421048,2,0.0,Ba_3,F,41_R,CAAATGTACCATCTGGTT,18,43.646742220054534,1.1895659057024657,38.888888888888886,3,0.16666666666666666,R,S2,A0330,Ba,,0
77860,41_F,TGCATATATTAATTCCAGC,41,19,41.97823425218753,2.8580738735694813,31.578947368421048,2,0.0,Ba_3,F,41_R,CAAATGTACCATCTGGTT,18,43.646742220054534,1.1895659057024657,38.888888888888886,3,0.16666666666666666,R,S6,A0706,Ba,,0
77859,41_F,TGCATATATTAATTCCAGC,41,19,41.97823425218753,2.8580738735694813,31.578947368421048,2,0.0,Ba_3,F,41_R,CAAATGTACCATCTGGTT,18,43.646742220054534,1.1895659057024657,38.888888888888886,3,0.16666666666666666,R,S5,A0615,Ba,,0
77858,41_F,TGCATATATTAATTCCAGC,41,19,41.97823425218753,2.8580738735694813,31.578947368421048,2,0.0,Ba_3,F,41_R,CAAATGTACCATCTGGTT,18,43.646742220054534,1.1895659057024657,38.888888888888886,3,0.16666666666666666,R,S4,A0605,Ba,,59
77805,41_F,TGCATATATTAATTCCAGC,41,19,41.97823425218753,2.8580738735694813,31.578947368421048,2,0.0,Ba_2,F,41_R,CAAATGTACCATCTGGTT,18,43.646742220054534,1.1895659057024657,38.888888888888886,3,0.16666666666666666,R,S144,BA-BaBTSeqBa007P2--xx-xxx-xxxx-021-SF,Ba,,320
77938,41_F,TGCATATATTAATTCCAGC,41,19,41.97823425218753,2.8580738735694813,31.578947368421048,2,0.0,Ba_3,F,41_R,CAAATGTACCATCTGGTT,18,43.646742220054534,1.1895659057024657,38.888888888888886,3,0.16666666666666666,R,S144,BA-BaBTSeqBa007P2--xx-xxx-xxxx-021-SF,Ba,,320
77672,41_F,TGCATATATTAATTCCAGC,41,19,41.97823425218753,2.8580738735694813,31.578947368421048,2,0.0,Ba_1,F,41_R,CAAATGTACCATCTGGTT,18,43.646742220054534,1.1895659057024657,38.888888888888886,3,0.16666666666666666,R,S144,BA-BaBTSeqBa007P2--xx-xxx-xxxx-021-SF,Ba,,320
77595,41_F,TGCATATATTAATTCCAGC,41,19,41.97823425218753,2.8580738735694813,31.578947368421048,2,0.0,Ba_1,F,41_R,CAAATGTACCATCTGGTT,18,43.646742220054534,1.1895659057024657,38.888888888888886,3,0.16666666666666666,R,S2,A0330,Ba,,0
77594,41_F,TGCATATATTAATTCCAGC,41,19,41.97823425218753,2.8580738735694813,31.578947368421048,2,0.0,Ba_1,F,41_R,CAAATGTACCATCTGGTT,18,43.646742220054534,1.1895659057024657,38.888888888888886,3,0.16666666666666666,R,S6,A0706,Ba,,0
77593,41_F,TGCATATATTAATTCCAGC,41,19,41.97823425218753,2.8580738735694813,31.578947368421048,2,0.0,Ba_1,F,41_R,CAAATGTACCATCTGGTT,18,43.646742220054534,1.1895659057024657,38.888888888888886,3,0.16666666666666666,R,S5,A0615,Ba,,0
77592,41_F,TGCATATATTAATTCCAGC,41,19,41.97823425218753,2.8580738735694813,31.578947368421048,2,0.0,Ba_1,F,41_R,CAAATGTACCATCTGGTT,18,43.646742220054534,1.1895659057024657,38.888888888888886,3,0.16666666666666666,R,S4,A0605,Ba,,59
77728,41_F,TGCATATATTAATTCCAGC,41,19,41.97823425218753,2.8580738735694813,31.578947368421048,2,0.0,Ba_2,F,41_R,CAAATGTACCATCTGGTT,18,43.646742220054534,1.1895659057024657,38.888888888888886,3,0.16666666666666666,R,S2,A0330,Ba,,0
77727,41_F,TGCATATATTAATTCCAGC,41,19,41.97823425218753,2.8580738735694813,31.578947368421048,2,0.0,Ba_2,F,41_R,CAAATGTACCATCTGGTT,18,43.646742220054534,1.1895659057024657,38.888888888888886,3,0.16666666666666666,R,S6,A0706,Ba,,0
77725,41_F,TGCATATATTAATTCCAGC,41,19,41.97823425218753,2.8580738735694813,31.578947368421048,2,0.0,Ba_2,F,41_R,CAAATGTACCATCTGGTT,18,43.646742220054534,1.1895659057024657,38.888888888888886,3,0.16666666666666666,R,S4,A0605,Ba,,59
77726,41_F,TGCATATATTAATTCCAGC,41,19,41.97823425218753,2.8580738735694813,31.578947368421048,2,0.0,Ba_2,F,41_R,CAAATGTACCATCTGGTT,18,43.646742220054534,1.1895659057024657,38.888888888888886,3,0.16666666666666666,R,S5,A0615,Ba,,0
78204,41_F,TAAAGCAAATAACGGTACGAAAG,41,23,49.90318697458577,3.4306695274725527,34.78260869565217,3,0.39130434782608703,Ba_5_V35,F,41_R,TATTGAACTGACTCTTGTGCCC,22,52.456829687055226,5.984312239942021,45.45454545454545,3,0.13636363636363635,R,S144,BA-BaBTSeqBa007P2--xx-xxx-xxxx-021-SF,Ba,,320
78260,41_F,TAAAGCAAATAACGGTACGAAAG,41,23,49.90318697458577,3.6010052349998745,34.78260869565217,3,0.39130434782608703,Ba_5_V3,F,41_R,TATTGAACTGACTCTTGTGCCC,22,52.456829687055226,6.154647947469343,45.45454545454545,3,0.13636363636363635,R,S2,A0330,Ba,,0
78259,41_F,TAAAGCAAATAACGGTACGAAAG,41,23,49.90318697458577,3.6010052349998745,34.78260869565217,3,0.39130434782608703,Ba_5_V3,F,41_R,TATTGAACTGACTCTTGTGCCC,22,52.456829687055226,6.154647947469343,45.45454545454545,3,0.13636363636363635,R,S6,A0706,Ba,,0
78258,41_F,TAAAGCAAATAACGGTACGAAAG,41,23,49.90318697458577,3.6010052349998745,34.78260869565217,3,0.39130434782608703,Ba_5_V3,F,41_R,TATTGAACTGACTCTTGTGCCC,22,52.456829687055226,6.154647947469343,45.45454545454545,3,0.13636363636363635,R,S5,A0615,Ba,,0
78257,41_F,TAAAGCAAATAACGGTACGAAAG,41,23,49.90318697458577,3.6010052349998745,34.78260869565217,3,0.39130434782608703,Ba_5_V3,F,41_R,TATTGAACTGACTCTTGTGCCC,22,52.456829687055226,6.154647947469343,45.45454545454545,3,0.13636363636363635,R,S4,A0605,Ba,,59
77994,41_F,TAAAGCAAATAACGGTACGAAAG,41,23,49.90318697458577,3.6010052349998745,34.78260869565217,3,0.39130434782608703,Ba_4,F,41_R,TATTGAACTGACTCTTGTGCCC,22,52.456829687055226,6.154647947469343,45.45454545454545,3,0.13636363636363635,R,S2,A0330,Ba,,0
77993,41_F,TAAAGCAAATAACGGTACGAAAG,41,23,49.90318697458577,3.6010052349998745,34.78260869565217,3,0.39130434782608703,Ba_4,F,41_R,TATTGAACTGACTCTTGTGCCC,22,52.456829687055226,6.154647947469343,45.45454545454545,3,0.13636363636363635,R,S6,A0706,Ba,,0
77992,41_F,TAAAGCAAATAACGGTACGAAAG,41,23,49.90318697458577,3.6010052349998745,34.78260869565217,3,0.39130434782608703,Ba_4,F,41_R,TATTGAACTGACTCTTGTGCCC,22,52.456829687055226,6.154647947469343,45.45454545454545,3,0.13636363636363635,R,S5,A0615,Ba,,0
77991,41_F,TAAAGCAAATAACGGTACGAAAG,41,23,49.90318697458577,3.6010052349998745,34.78260869565217,3,0.39130434782608703,Ba_4,F,41_R,TATTGAACTGACTCTTGTGCCC,22,52.456829687055226,6.154647947469343,45.45454545454545,3,0.13636363636363635,R,S4,A0605,Ba,,59
78127,41_F,TAAAGCAAATAACGGTACGAAAG,41,23,49.90318697458577,3.4306695274725527,34.78260869565217,3,0.39130434782608703,Ba_5_V35,F,41_R,TATTGAACTGACTCTTGTGCCC,22,52.456829687055226,5.984312239942021,45.45454545454545,3,0.13636363636363635,R,S2,A0330,Ba,,0
78126,41_F,TAAAGCAAATAACGGTACGAAAG,41,23,49.90318697458577,3.4306695274725527,34.78260869565217,3,0.39130434782608703,Ba_5_V35,F,41_R,TATTGAACTGACTCTTGTGCCC,22,52.456829687055226,5.984312239942021,45.45454545454545,3,0.13636363636363635,R,S6,A0706,Ba,,0
78125,41_F,TAAAGCAAATAACGGTACGAAAG,41,23,49.90318697458577,3.4306695274725527,34.78260869565217,3,0.39130434782608703,Ba_5_V35,F,41_R,TATTGAACTGACTCTTGTGCCC,22,52.456829687055226,5.984312239942021,45.45454545454545,3,0.13636363636363635,R,S5,A0615,Ba,,0
78124,41_F,TAAAGCAAATAACGGTACGAAAG,41,23,49.90318697458577,3.4306695274725527,34.78260869565217,3,0.39130434782608703,Ba_5_V35,F,41_R,TATTGAACTGACTCTTGTGCCC,22,52.456829687055226,5.984312239942021,45.45454545454545,3,0.13636363636363635,R,S4,A0605,Ba,,59
78071,41_F,TAAAGCAAATAACGGTACGAAAG,41,23,49.90318697458577,3.6010052349998745,34.78260869565217,3,0.39130434782608703,Ba_4,F,41_R,TATTGAACTGACTCTTGTGCCC,22,52.456829687055226,6.154647947469343,45.45454545454545,3,0.13636363636363635,R,S144,BA-BaBTSeqBa007P2--xx-xxx-xxxx-021-SF,Ba,,320
95528,42_F,AAGAAGTTGAAGGATCA,42,17,40.82621921560161,6.416844409913999,35.29411764705883,2,0.0,Ba_6_V4,F,42_R,TTCCTGGTTCTTTTACTTCTTTCG,24,51.523957929449246,4.2808943039336285,37.5,4,0.2916666666666667,R,S144,BA-BaBTSeqBa007P2--xx-xxx-xxxx-021-SF,Ba,,0
95603,42_F,AAGAAGTTGAAGGATCA,42,17,40.82621921560161,6.3889044451410015,35.29411764705883,2,0.0,Ba_V45,F,42_R,TTCCTGGTTCTTTTACTTCTTTCG,24,51.523957929449246,4.308834268706626,37.5,4,0.2916666666666667,R,S144,BA-BaBTSeqBa007P2--xx-xxx-xxxx-021-SF,Ba,,0
95378,42_F,GCCCGAAAGAAGAAGTG,42,17,47.15132710829022,0.8491453687043276,52.941176470588246,3,0.35294117647058826,Ba_4,F,42_R,TCTGTTGTTGGCTCTT,16,43.59634023884325,2.7058415007426357,43.75,2,0.0,R,S144,BA-BaBTSeqBa007P2--xx-xxx-xxxx-021-SF,Ba,,0
95453,42_F,GCCCGAAAGAAGAAGTG,42,17,47.15132710829022,0.8491453687043276,52.941176470588246,3,0.35294117647058826,Ba_5_V3,F,42_R,TCTGTTGTTGGCTCTT,16,43.59634023884325,2.7058415007426357,43.75,2,0.0,R,S144,BA-BaBTSeqBa007P2--xx-xxx-xxxx-021-SF,Ba,,0