,Primer_Name_L,Seq_L,Amplicon,Primer_Length_L,Tm_L,Delta Tm_L,GC_Content_L,Length_Longest_Homopolymer_L,Percent_Homopolymer_L,exp,flank_L,Primer_Name_R,Seq_R,Primer_Length_R,Tm_R,Delta Tm_R,GC_Content_R,Length_Longest_Homopolymer_R,Percent_Homopolymer_R,flank_R,sample_id,sample_name,species,strain,n_reads
68023,13_F,ACCAGTATCTGACCAATCA,13,19,46.802757745738056,1.9664496199810628,42.105263157894726,2,0.0,Ba_2,F,13_R,AGTGAAATACTGCGATGTT,19,46.546053458757115,1.7097453330001144,36.84210526315789,3,0.15789473684210525,R,S144,BA-BaBTSeqBa007P2--xx-xxx-xxxx-021-SF,Ba,,221
67948,13_F,ACCAGTATCTGACCAATCA,13,19,46.802757745738056,1.9664496199810628,42.105263157894726,2,0.0,Ba_2,F,13_R,AGTGAAATACTGCGATGTT,19,46.546053458757115,1.7097453330001144,36.84210526315789,3,0.15789473684210525,R,S4,A0605,Ba,,1639
67947,13_F,ACCAGTATCTGACCAATCA,13,19,46.802757745738056,1.9664496199810628,42.105263157894726,2,0.0,Ba_2,F,13_R,AGTGAAATACTGCGATGTT,19,46.546053458757115,1.7097453330001144,36.84210526315789,3,0.15789473684210525,R,S6,A0706,Ba,,0
67946,13_F,ACCAGTATCTGACCAATCA,13,19,46.802757745738056,1.9664496199810628,42.105263157894726,2,0.0,Ba_2,F,13_R,AGTGAAATACTGCGATGTT,19,46.546053458757115,1.7097453330001144,36.84210526315789,3,0.15789473684210525,R,S5,A0615,Ba,,0
67945,13_F,ACCAGTATCTGACCAATCA,13,19,46.802757745738056,1.9664496199810628,42.105263157894726,2,0.0,Ba_2,F,13_R,AGTGAAATACTGCGATGTT,19,46.546053458757115,1.7097453330001144,36.84210526315789,3,0.15789473684210525,R,S2,A0330,Ba,,0
68763,13_F,ACCAGTATCTGACCAATCA,13,19,46.802757745738056,0.4403058797775472,42.105263157894726,2,0.0,Ba_6_V4,F,13_R,AGTGAAATACTGCGATGTT,19,46.546053458757115,0.6970101667584956,36.84210526315789,3,0.15789473684210525,R,S4,A0605,Ba,,1639
68762,13_F,ACCAGTATCTGACCAATCA,13,19,46.802757745738056,0.4403058797775472,42.105263157894726,2,0.0,Ba_6_V4,F,13_R,AGTGAAATACTGCGATGTT,19,46.546053458757115,0.6970101667584956,36.84210526315789,3,0.15789473684210525,R,S6,A0706,Ba,,0
68761,13_F,ACCAGTATCTGACCAATCA,13,19,46.802757745738056,0.4403058797775472,42.105263157894726,2,0.0,Ba_6_V4,F,13_R,AGTGAAATACTGCGATGTT,19,46.546053458757115,0.6970101667584956,36.84210526315789,3,0.15789473684210525,R,S5,A0615,Ba,,0
68760,13_F,ACCAGTATCTGACCAATCA,13,19,46.802757745738056,0.4403058797775472,42.105263157894726,2,0.0,Ba_6_V4,F,13_R,AGTGAAATACTGCGATGTT,19,46.546053458757115,0.6970101667584956,36.84210526315789,3,0.15789473684210525,R,S2,A0330,Ba,,0
68675,13_F,ACCAGTATCTGACCAATCA,13,19,46.802757745738056,0.5005760061521727,42.105263157894726,2,0.0,Ba_5_V3,F,13_R,AGTGAAATACTGCGATGTT,19,46.546053458757115,0.2438717191712243,36.84210526315789,3,0.15789473684210525,R,S144,BA-BaBTSeqBa007P2--xx-xxx-xxxx-021-SF,Ba,,221
68838,13_F,ACCAGTATCTGACCAATCA,13,19,46.802757745738056,0.4403058797775472,42.105263157894726,2,0.0,Ba_6_V4,F,13_R,AGTGAAATACTGCGATGTT,19,46.546053458757115,0.6970101667584956,36.84210526315789,3,0.15789473684210525,R,S144,BA-BaBTSeqBa007P2--xx-xxx-xxxx-021-SF,Ba,,221
68437,13_F,ACCAGTATCTGACCAATCA,13,19,46.802757745738056,0.3302402986248509,42.105263157894726,2,0.0,Ba_5_V35,F,13_R,AGTGAAATACTGCGATGTT,19,46.546053458757115,0.07353601164390255,36.84210526315789,3,0.15789473684210525,R,S4,A0605,Ba,,1639
68436,13_F,ACCAGTATCTGACCAATCA,13,19,46.802757745738056,0.3302402986248509,42.105263157894726,2,0.0,Ba_5_V35,F,13_R,AGTGAAATACTGCGATGTT,19,46.546053458757115,0.07353601164390255,36.84210526315789,3,0.15789473684210525,R,S6,A0706,Ba,,0
68434,13_F,ACCAGTATCTGACCAATCA,13,19,46.802757745738056,0.3302402986248509,42.105263157894726,2,0.0,Ba_5_V35,F,13_R,AGTGAAATACTGCGATGTT,19,46.546053458757115,0.07353601164390255,36.84210526315789,3,0.15789473684210525,R,S2,A0330,Ba,,0
68435,13_F,ACCAGTATCTGACCAATCA,13,19,46.802757745738056,0.3302402986248509,42.105263157894726,2,0.0,Ba_5_V35,F,13_R,AGTGAAATACTGCGATGTT,19,46.546053458757115,0.07353601164390255,36.84210526315789,3,0.15789473684210525,R,S5,A0615,Ba,,0
68349,13_F,ACCAGTATCTGACCAATCA,13,19,46.802757745738056,0.5005760061521727,42.105263157894726,2,0.0,Ba_4,F,13_R,AGTGAAATACTGCGATGTT,19,46.546053458757115,0.2438717191712243,36.84210526315789,3,0.15789473684210525,R,S144,BA-BaBTSeqBa007P2--xx-xxx-xxxx-021-SF,Ba,,221
68597,13_F,ACCAGTATCTGACCAATCA,13,19,46.802757745738056,0.5005760061521727,42.105263157894726,2,0.0,Ba_5_V3,F,13_R,AGTGAAATACTGCGATGTT,19,46.546053458757115,0.2438717191712243,36.84210526315789,3,0.15789473684210525,R,S2,A0330,Ba,,0
68598,13_F,ACCAGTATCTGACCAATCA,13,19,46.802757745738056,0.5005760061521727,42.105263157894726,2,0.0,Ba_5_V3,F,13_R,AGTGAAATACTGCGATGTT,19,46.546053458757115,0.2438717191712243,36.84210526315789,3,0.15789473684210525,R,S5,A0615,Ba,,0
68599,13_F,ACCAGTATCTGACCAATCA,13,19,46.802757745738056,0.5005760061521727,42.105263157894726,2,0.0,Ba_5_V3,F,13_R,AGTGAAATACTGCGATGTT,19,46.546053458757115,0.2438717191712243,36.84210526315789,3,0.15789473684210525,R,S6,A0706,Ba,,0
68600,13_F,ACCAGTATCTGACCAATCA,13,19,46.802757745738056,0.5005760061521727,42.105263157894726,2,0.0,Ba_5_V3,F,13_R,AGTGAAATACTGCGATGTT,19,46.546053458757115,0.2438717191712243,36.84210526315789,3,0.15789473684210525,R,S4,A0605,Ba,,1639
68512,13_F,ACCAGTATCTGACCAATCA,13,19,46.802757745738056,0.3302402986248509,42.105263157894726,2,0.0,Ba_5_V35,F,13_R,AGTGAAATACTGCGATGTT,19,46.546053458757115,0.07353601164390255,36.84210526315789,3,0.15789473684210525,R,S144,BA-BaBTSeqBa007P2--xx-xxx-xxxx-021-SF,Ba,,221
44659,14_F,AGACCGACTGAGAGAAGATAT,14,21,49.161050917042076,1.9459272562994627,42.857142857142854,2,0.0,Ba_V45,F,14_R,ACAGGATAACTAATAACAACGT,22,47.12459429690472,0.090529363837895,31.818181818181817,2,0.0,R,S144,BA-BaBTSeqBa007P2--xx-xxx-xxxx-021-SF,Ba,,480
44742,14_F,AGGCTAAAACCAATAATCAA,14,20,44.368991359792396,4.487300240431615,30.0,4,0.2,Ft_1,F,14_R,TACTTTCTCTATGGTGGAT,19,43.48440187180091,5.371889728423107,36.84210526315789,3,0.15789473684210525,R,S5,A0615,Ba,,137
44741,14_F,AGGCTAAAACCAATAATCAA,14,20,44.368991359792396,4.487300240431615,30.0,4,0.2,Ft_1,F,14_R,TACTTTCTCTATGGTGGAT,19,43.48440187180091,5.371889728423107,36.84210526315789,3,0.15789473684210525,R,S2,A0330,Ba,,81
44740,14_F,AGGCTAAAACCAATAATCAA,14,20,44.368991359792396,4.487300240431615,30.0,4,0.2,Ft_1,F,14_R,TACTTTCTCTATGGTGGAT,19,43.48440187180091,5.371889728423107,36.84210526315789,3,0.15789473684210525,R,S4,A0605,Ba,,8876
44739,14_F,AGGCTAAAACCAATAATCAA,14,20,44.368991359792396,4.487300240431615,30.0,4,0.2,Ft_1,F,14_R,TACTTTCTCTATGGTGGAT,19,43.48440187180091,5.371889728423107,36.84210526315789,3,0.15789473684210525,R,S6,A0706,Ba,,115
44585,14_F,AGACCGACTGAGAGAAGATAT,14,21,49.161050917042076,1.9459272562994627,42.857142857142854,2,0.0,Ba_V45,F,14_R,ACAGGATAACTAATAACAACGT,22,47.12459429690472,0.090529363837895,31.818181818181817,2,0.0,R,S5,A0615,Ba,,137
44428,14_F,AGACCGACTGAGAGAAGATAT,14,21,49.161050917042076,1.9179872915264653,42.857142857142854,2,0.0,Ba_6_V4,F,14_R,ACAGGATAACTAATAACAACGT,22,47.12459429690472,0.11846932861089245,31.818181818181817,2,0.0,R,S5,A0615,Ba,,137
44427,14_F,AGACCGACTGAGAGAAGATAT,14,21,49.161050917042076,1.9179872915264653,42.857142857142854,2,0.0,Ba_6_V4,F,14_R,ACAGGATAACTAATAACAACGT,22,47.12459429690472,0.11846932861089245,31.818181818181817,2,0.0,R,S2,A0330,Ba,,81
44426,14_F,AGACCGACTGAGAGAAGATAT,14,21,49.161050917042076,1.9179872915264653,42.857142857142854,2,0.0,Ba_6_V4,F,14_R,ACAGGATAACTAATAACAACGT,22,47.12459429690472,0.11846932861089245,31.818181818181817,2,0.0,R,S4,A0605,Ba,,8876
44425,14_F,AGACCGACTGAGAGAAGATAT,14,21,49.161050917042076,1.9179872915264653,42.857142857142854,2,0.0,Ba_6_V4,F,14_R,ACAGGATAACTAATAACAACGT,22,47.12459429690472,0.11846932861089245,31.818181818181817,2,0.0,R,S6,A0706,Ba,,115
44584,14_F,AGACCGACTGAGAGAAGATAT,14,21,49.161050917042076,1.9459272562994627,42.857142857142854,2,0.0,Ba_V45,F,14_R,ACAGGATAACTAATAACAACGT,22,47.12459429690472,0.090529363837895,31.818181818181817,2,0.0,R,S2,A0330,Ba,,81
44583,14_F,AGACCGACTGAGAGAAGATAT,14,21,49.161050917042076,1.9459272562994627,42.857142857142854,2,0.0,Ba_V45,F,14_R,ACAGGATAACTAATAACAACGT,22,47.12459429690472,0.090529363837895,31.818181818181817,2,0.0,R,S4,A0605,Ba,,8876
44582,14_F,AGACCGACTGAGAGAAGATAT,14,21,49.161050917042076,1.9459272562994627,42.857142857142854,2,0.0,Ba_V45,F,14_R,ACAGGATAACTAATAACAACGT,22,47.12459429690472,0.090529363837895,31.818181818181817,2,0.0,R,S6,A0706,Ba,,115
44502,14_F,AGACCGACTGAGAGAAGATAT,14,21,49.161050917042076,1.9179872915264653,42.857142857142854,2,0.0,Ba_6_V4,F,14_R,ACAGGATAACTAATAACAACGT,22,47.12459429690472,0.11846932861089245,31.818181818181817,2,0.0,R,S144,BA-BaBTSeqBa007P2--xx-xxx-xxxx-021-SF,Ba,,480
45130,14_F,TTGTTAATAATTTTTGGCTGC,14,21,45.857701951498306,4.415073887911697,28.57142857142857,5,0.2380952380952381,Ft_2,F,14_R,TCACAGCAATGCTTGTCGGAAC,22,56.15377828348835,5.881002444078341,50.0,2,0.0,R,S144,BA-BaBTSeqBa007P2--xx-xxx-xxxx-021-SF,Ba,,480
45056,14_F,TTGTTAATAATTTTTGGCTGC,14,21,45.857701951498306,4.415073887911697,28.57142857142857,5,0.2380952380952381,Ft_2,F,14_R,TCACAGCAATGCTTGTCGGAAC,22,56.15377828348835,5.881002444078341,50.0,2,0.0,R,S5,A0615,Ba,,137
45055,14_F,TTGTTAATAATTTTTGGCTGC,14,21,45.857701951498306,4.415073887911697,28.57142857142857,5,0.2380952380952381,Ft_2,F,14_R,TCACAGCAATGCTTGTCGGAAC,22,56.15377828348835,5.881002444078341,50.0,2,0.0,R,S2,A0330,Ba,,81
45054,14_F,TTGTTAATAATTTTTGGCTGC,14,21,45.857701951498306,4.415073887911697,28.57142857142857,5,0.2380952380952381,Ft_2,F,14_R,TCACAGCAATGCTTGTCGGAAC,22,56.15377828348835,5.881002444078341,50.0,2,0.0,R,S4,A0605,Ba,,8876
45053,14_F,TTGTTAATAATTTTTGGCTGC,14,21,45.857701951498306,4.415073887911697,28.57142857142857,5,0.2380952380952381,Ft_2,F,14_R,TCACAGCAATGCTTGTCGGAAC,22,56.15377828348835,5.881002444078341,50.0,2,0.0,R,S6,A0706,Ba,,115
45213,14_F,ATCTTCGTCATCACCAATCGG,14,21,52.40360823906468,1.2373965843805692,47.61904761904761,2,0.0,Yp_1_V2,F,14_R,GCGCACTATCCGTATTCC,18,49.927063779816315,1.239147874867804,55.555555555555564,2,0.0,R,S5,A0615,Ba,,137
45212,14_F,ATCTTCGTCATCACCAATCGG,14,21,52.40360823906468,1.2373965843805692,47.61904761904761,2,0.0,Yp_1_V2,F,14_R,GCGCACTATCCGTATTCC,18,49.927063779816315,1.239147874867804,55.555555555555564,2,0.0,R,S2,A0330,Ba,,81
45211,14_F,ATCTTCGTCATCACCAATCGG,14,21,52.40360823906468,1.2373965843805692,47.61904761904761,2,0.0,Yp_1_V2,F,14_R,GCGCACTATCCGTATTCC,18,49.927063779816315,1.239147874867804,55.555555555555564,2,0.0,R,S4,A0605,Ba,,8876
45210,14_F,ATCTTCGTCATCACCAATCGG,14,21,52.40360823906468,1.2373965843805692,47.61904761904761,2,0.0,Yp_1_V2,F,14_R,GCGCACTATCCGTATTCC,18,49.927063779816315,1.239147874867804,55.555555555555564,2,0.0,R,S6,A0706,Ba,,115
44896,14_F,AGGCTAAAACCAATAATCAA,14,20,44.368991359792396,5.688196484021488,30.0,4,0.2,Ft_2_V2,F,14_R,TACTTTCTCTATGGTGGAT,19,43.48440187180091,6.57278597201298,36.84210526315789,3,0.15789473684210525,R,S6,A0706,Ba,,115
44897,14_F,AGGCTAAAACCAATAATCAA,14,20,44.368991359792396,5.688196484021488,30.0,4,0.2,Ft_2_V2,F,14_R,TACTTTCTCTATGGTGGAT,19,43.48440187180091,6.57278597201298,36.84210526315789,3,0.15789473684210525,R,S4,A0605,Ba,,8876
44898,14_F,AGGCTAAAACCAATAATCAA,14,20,44.368991359792396,5.688196484021488,30.0,4,0.2,Ft_2_V2,F,14_R,TACTTTCTCTATGGTGGAT,19,43.48440187180091,6.57278597201298,36.84210526315789,3,0.15789473684210525,R,S2,A0330,Ba,,81
44899,14_F,AGGCTAAAACCAATAATCAA,14,20,44.368991359792396,5.688196484021488,30.0,4,0.2,Ft_2_V2,F,14_R,TACTTTCTCTATGGTGGAT,19,43.48440187180091,6.57278597201298,36.84210526315789,3,0.15789473684210525,R,S5,A0615,Ba,,137
44816,14_F,AGGCTAAAACCAATAATCAA,14,20,44.368991359792396,4.487300240431615,30.0,4,0.2,Ft_1,F,14_R,TACTTTCTCTATGGTGGAT,19,43.48440187180091,5.371889728423107,36.84210526315789,3,0.15789473684210525,R,S144,BA-BaBTSeqBa007P2--xx-xxx-xxxx-021-SF,Ba,,480
44973,14_F,AGGCTAAAACCAATAATCAA,14,20,44.368991359792396,5.688196484021488,30.0,4,0.2,Ft_2_V2,F,14_R,TACTTTCTCTATGGTGGAT,19,43.48440187180091,6.57278597201298,36.84210526315789,3,0.15789473684210525,R,S144,BA-BaBTSeqBa007P2--xx-xxx-xxxx-021-SF,Ba,,480
43800,14_F,GTCTTCGAATGATGTGTCAAT,14,21,48.622697194290474,3.7863890685334813,38.095238095238095,2,0.0,Ba_3,F,14_R,GAACGATAACCACTATCTT,19,43.526197204335794,1.3101109214211988,36.84210526315789,2,0.0,R,S5,A0615,Ba,,137
43798,14_F,GTCTTCGAATGATGTGTCAAT,14,21,48.622697194290474,3.7863890685334813,38.095238095238095,2,0.0,Ba_3,F,14_R,GAACGATAACCACTATCTT,19,43.526197204335794,1.3101109214211988,36.84210526315789,2,0.0,R,S4,A0605,Ba,,8876
43797,14_F,GTCTTCGAATGATGTGTCAAT,14,21,48.622697194290474,3.7863890685334813,38.095238095238095,2,0.0,Ba_3,F,14_R,GAACGATAACCACTATCTT,19,43.526197204335794,1.3101109214211988,36.84210526315789,2,0.0,R,S6,A0706,Ba,,115
43799,14_F,GTCTTCGAATGATGTGTCAAT,14,21,48.622697194290474,3.7863890685334813,38.095238095238095,2,0.0,Ba_3,F,14_R,GAACGATAACCACTATCTT,19,43.526197204335794,1.3101109214211988,36.84210526315789,2,0.0,R,S2,A0330,Ba,,81
43717,14_F,GTCTTCGAATGATGTGTCAAT,14,21,48.622697194290474,3.7863890685334813,38.095238095238095,2,0.0,Ba_2,F,14_R,GAACGATAACCACTATCTT,19,43.526197204335794,1.3101109214211988,36.84210526315789,2,0.0,R,S144,BA-BaBTSeqBa007P2--xx-xxx-xxxx-021-SF,Ba,,480
43874,14_F,GTCTTCGAATGATGTGTCAAT,14,21,48.622697194290474,3.7863890685334813,38.095238095238095,2,0.0,Ba_3,F,14_R,GAACGATAACCACTATCTT,19,43.526197204335794,1.3101109214211988,36.84210526315789,2,0.0,R,S144,BA-BaBTSeqBa007P2--xx-xxx-xxxx-021-SF,Ba,,480
43560,14_F,GTCTTCGAATGATGTGTCAAT,14,21,48.622697194290474,3.7863890685334813,38.095238095238095,2,0.0,Ba_1,F,14_R,GAACGATAACCACTATCTT,19,43.526197204335794,1.3101109214211988,36.84210526315789,2,0.0,R,S144,BA-BaBTSeqBa007P2--xx-xxx-xxxx-021-SF,Ba,,480
43486,14_F,GTCTTCGAATGATGTGTCAAT,14,21,48.622697194290474,3.7863890685334813,38.095238095238095,2,0.0,Ba_1,F,14_R,GAACGATAACCACTATCTT,19,43.526197204335794,1.3101109214211988,36.84210526315789,2,0.0,R,S5,A0615,Ba,,137
43485,14_F,GTCTTCGAATGATGTGTCAAT,14,21,48.622697194290474,3.7863890685334813,38.095238095238095,2,0.0,Ba_1,F,14_R,GAACGATAACCACTATCTT,19,43.526197204335794,1.3101109214211988,36.84210526315789,2,0.0,R,S2,A0330,Ba,,81
43484,14_F,GTCTTCGAATGATGTGTCAAT,14,21,48.622697194290474,3.7863890685334813,38.095238095238095,2,0.0,Ba_1,F,14_R,GAACGATAACCACTATCTT,19,43.526197204335794,1.3101109214211988,36.84210526315789,2,0.0,R,S4,A0605,Ba,,8876
43483,14_F,GTCTTCGAATGATGTGTCAAT,14,21,48.622697194290474,3.7863890685334813,38.095238095238095,2,0.0,Ba_1,F,14_R,GAACGATAACCACTATCTT,19,43.526197204335794,1.3101109214211988,36.84210526315789,2,0.0,R,S6,A0706,Ba,,115
43643,14_F,GTCTTCGAATGATGTGTCAAT,14,21,48.622697194290474,3.7863890685334813,38.095238095238095,2,0.0,Ba_2,F,14_R,GAACGATAACCACTATCTT,19,43.526197204335794,1.3101109214211988,36.84210526315789,2,0.0,R,S5,A0615,Ba,,137
43642,14_F,GTCTTCGAATGATGTGTCAAT,14,21,48.622697194290474,3.7863890685334813,38.095238095238095,2,0.0,Ba_2,F,14_R,GAACGATAACCACTATCTT,19,43.526197204335794,1.3101109214211988,36.84210526315789,2,0.0,R,S2,A0330,Ba,,81
43641,14_F,GTCTTCGAATGATGTGTCAAT,14,21,48.622697194290474,3.7863890685334813,38.095238095238095,2,0.0,Ba_2,F,14_R,GAACGATAACCACTATCTT,19,43.526197204335794,1.3101109214211988,36.84210526315789,2,0.0,R,S4,A0605,Ba,,8876
43640,14_F,GTCTTCGAATGATGTGTCAAT,14,21,48.622697194290474,3.7863890685334813,38.095238095238095,2,0.0,Ba_2,F,14_R,GAACGATAACCACTATCTT,19,43.526197204335794,1.3101109214211988,36.84210526315789,2,0.0,R,S6,A0706,Ba,,115
44188,14_F,AGACCGACTGAGAGAAGATAT,14,21,49.161050917042076,2.6885334699288634,42.857142857142854,2,0.0,Ba_5_V35,F,14_R,ACAGGATAACTAATAACAACGT,22,47.12459429690472,0.6520768497915057,31.818181818181817,2,0.0,R,S144,BA-BaBTSeqBa007P2--xx-xxx-xxxx-021-SF,Ba,,480
44345,14_F,AGACCGACTGAGAGAAGATAT,14,21,49.161050917042076,2.858869177456185,42.857142857142854,2,0.0,Ba_5_V3,F,14_R,ACAGGATAACTAATAACAACGT,22,47.12459429690472,0.8224125573188275,31.818181818181817,2,0.0,R,S144,BA-BaBTSeqBa007P2--xx-xxx-xxxx-021-SF,Ba,,480
44271,14_F,AGACCGACTGAGAGAAGATAT,14,21,49.161050917042076,2.858869177456185,42.857142857142854,2,0.0,Ba_5_V3,F,14_R,ACAGGATAACTAATAACAACGT,22,47.12459429690472,0.8224125573188275,31.818181818181817,2,0.0,R,S5,A0615,Ba,,137
44270,14_F,AGACCGACTGAGAGAAGATAT,14,21,49.161050917042076,2.858869177456185,42.857142857142854,2,0.0,Ba_5_V3,F,14_R,ACAGGATAACTAATAACAACGT,22,47.12459429690472,0.8224125573188275,31.818181818181817,2,0.0,R,S2,A0330,Ba,,81
44269,14_F,AGACCGACTGAGAGAAGATAT,14,21,49.161050917042076,2.858869177456185,42.857142857142854,2,0.0,Ba_5_V3,F,14_R,ACAGGATAACTAATAACAACGT,22,47.12459429690472,0.8224125573188275,31.818181818181817,2,0.0,R,S4,A0605,Ba,,8876
44268,14_F,AGACCGACTGAGAGAAGATAT,14,21,49.161050917042076,2.858869177456185,42.857142857142854,2,0.0,Ba_5_V3,F,14_R,ACAGGATAACTAATAACAACGT,22,47.12459429690472,0.8224125573188275,31.818181818181817,2,0.0,R,S6,A0706,Ba,,115
44031,14_F,AGACCGACTGAGAGAAGATAT,14,21,49.161050917042076,2.858869177456185,42.857142857142854,2,0.0,Ba_4,F,14_R,ACAGGATAACTAATAACAACGT,22,47.12459429690472,0.8224125573188275,31.818181818181817,2,0.0,R,S144,BA-BaBTSeqBa007P2--xx-xxx-xxxx-021-SF,Ba,,480
43954,14_F,AGACCGACTGAGAGAAGATAT,14,21,49.161050917042076,2.858869177456185,42.857142857142854,2,0.0,Ba_4,F,14_R,ACAGGATAACTAATAACAACGT,22,47.12459429690472,0.8224125573188275,31.818181818181817,2,0.0,R,S6,A0706,Ba,,115
43957,14_F,AGACCGACTGAGAGAAGATAT,14,21,49.161050917042076,2.858869177456185,42.857142857142854,2,0.0,Ba_4,F,14_R,ACAGGATAACTAATAACAACGT,22,47.12459429690472,0.8224125573188275,31.818181818181817,2,0.0,R,S5,A0615,Ba,,137
43956,14_F,AGACCGACTGAGAGAAGATAT,14,21,49.161050917042076,2.858869177456185,42.857142857142854,2,0.0,Ba_4,F,14_R,ACAGGATAACTAATAACAACGT,22,47.12459429690472,0.8224125573188275,31.818181818181817,2,0.0,R,S2,A0330,Ba,,81
43955,14_F,AGACCGACTGAGAGAAGATAT,14,21,49.161050917042076,2.858869177456185,42.857142857142854,2,0.0,Ba_4,F,14_R,ACAGGATAACTAATAACAACGT,22,47.12459429690472,0.8224125573188275,31.818181818181817,2,0.0,R,S4,A0605,Ba,,8876
44114,14_F,AGACCGACTGAGAGAAGATAT,14,21,49.161050917042076,2.6885334699288634,42.857142857142854,2,0.0,Ba_5_V35,F,14_R,ACAGGATAACTAATAACAACGT,22,47.12459429690472,0.6520768497915057,31.818181818181817,2,0.0,R,S5,A0615,Ba,,137
44113,14_F,AGACCGACTGAGAGAAGATAT,14,21,49.161050917042076,2.6885334699288634,42.857142857142854,2,0.0,Ba_5_V35,F,14_R,ACAGGATAACTAATAACAACGT,22,47.12459429690472,0.6520768497915057,31.818181818181817,2,0.0,R,S2,A0330,Ba,,81
44112,14_F,AGACCGACTGAGAGAAGATAT,14,21,49.161050917042076,2.6885334699288634,42.857142857142854,2,0.0,Ba_5_V35,F,14_R,ACAGGATAACTAATAACAACGT,22,47.12459429690472,0.6520768497915057,31.818181818181817,2,0.0,R,S4,A0605,Ba,,8876
44111,14_F,AGACCGACTGAGAGAAGATAT,14,21,49.161050917042076,2.6885334699288634,42.857142857142854,2,0.0,Ba_5_V35,F,14_R,ACAGGATAACTAATAACAACGT,22,47.12459429690472,0.6520768497915057,31.818181818181817,2,0.0,R,S6,A0706,Ba,,115
45367,14_F,ATCTTCGTCATCACCAATCGG,14,21,52.40360823906468,0.9787184864219968,47.61904761904761,2,0.0,Yp_1,F,14_R,GCGCACTATCCGTATTCC,18,49.927063779816315,1.4978259728263763,55.555555555555564,2,0.0,R,S6,A0706,Ba,,115
45368,14_F,ATCTTCGTCATCACCAATCGG,14,21,52.40360823906468,0.9787184864219968,47.61904761904761,2,0.0,Yp_1,F,14_R,GCGCACTATCCGTATTCC,18,49.927063779816315,1.4978259728263763,55.555555555555564,2,0.0,R,S4,A0605,Ba,,8876
45369,14_F,ATCTTCGTCATCACCAATCGG,14,21,52.40360823906468,0.9787184864219968,47.61904761904761,2,0.0,Yp_1,F,14_R,GCGCACTATCCGTATTCC,18,49.927063779816315,1.4978259728263763,55.555555555555564,2,0.0,R,S2,A0330,Ba,,81
45370,14_F,ATCTTCGTCATCACCAATCGG,14,21,52.40360823906468,0.9787184864219968,47.61904761904761,2,0.0,Yp_1,F,14_R,GCGCACTATCCGTATTCC,18,49.927063779816315,1.4978259728263763,55.555555555555564,2,0.0,R,S5,A0615,Ba,,137
45601,14_F,TCTTCGTCATCACCAATCG,14,19,49.43609971851032,2.5611305019740698,47.368421052631575,2,0.0,Yp_2,F,14_R,CTATTACTCGTTCGATTGCAGAC,23,51.771522888830596,0.2257073316538012,43.47826086956522,2,0.0,R,S144,BA-BaBTSeqBa007P2--xx-xxx-xxxx-021-SF,Ba,,480