,Primer_Name_L,Seq_L,Amplicon,Primer_Length_L,Tm_L,Delta Tm_L,GC_Content_L,Length_Longest_Homopolymer_L,Percent_Homopolymer_L,exp,flank_L,Primer_Name_R,Seq_R,Primer_Length_R,Tm_R,Delta Tm_R,GC_Content_R,Length_Longest_Homopolymer_R,Percent_Homopolymer_R,flank_R,sample_id,sample_name,species,strain,n_reads
56707,3_F,TTAGAGCGTGTGGTAAGGC,3,19,51.46953400398121,0.8950233051581193,52.631578947368425,2,0.0,Ba_HighSH,F,3_R,TACTACTACAACGCCCTCTATC,22,50.45864548057665,1.9059118285626797,45.45454545454545,3,0.13636363636363635,R,S2,A0330,Ba,,238
56706,3_F,TTAGAGCGTGTGGTAAGGC,3,19,51.46953400398121,0.8950233051581193,52.631578947368425,2,0.0,Ba_HighSH,F,3_R,TACTACTACAACGCCCTCTATC,22,50.45864548057665,1.9059118285626797,45.45454545454545,3,0.13636363636363635,R,S5,A0615,Ba,,221
56705,3_F,TTAGAGCGTGTGGTAAGGC,3,19,51.46953400398121,0.8950233051581193,52.631578947368425,2,0.0,Ba_HighSH,F,3_R,TACTACTACAACGCCCTCTATC,22,50.45864548057665,1.9059118285626797,45.45454545454545,3,0.13636363636363635,R,S4,A0605,Ba,,11528
56771,3_F,TTAGAGCGTGTGGTAAGGC,3,19,51.46953400398121,0.8950233051581193,52.631578947368425,2,0.0,Ba_HighSH,F,3_R,TACTACTACAACGCCCTCTATC,22,50.45864548057665,1.9059118285626797,45.45454545454545,3,0.13636363636363635,R,S144,BA-BaBTSeqBa007P2--xx-xxx-xxxx-021-SF,Ba,,45
55773,3_F,ATAATTTAGAGCGTGTGGT,3,19,45.835174705159766,0.9988665794027723,36.84210526315789,3,0.15789473684210525,Ba_3,F,3_R,ACCTGTTTGTGCATCTAC,18,46.495500536911955,1.6591924111549474,44.444444444444436,3,0.16666666666666666,R,S6,A0706,Ba,,227
55772,3_F,ATAATTTAGAGCGTGTGGT,3,19,45.835174705159766,0.9988665794027723,36.84210526315789,3,0.15789473684210525,Ba_3,F,3_R,ACCTGTTTGTGCATCTAC,18,46.495500536911955,1.6591924111549474,44.444444444444436,3,0.16666666666666666,R,S2,A0330,Ba,,238
55771,3_F,ATAATTTAGAGCGTGTGGT,3,19,45.835174705159766,0.9988665794027723,36.84210526315789,3,0.15789473684210525,Ba_3,F,3_R,ACCTGTTTGTGCATCTAC,18,46.495500536911955,1.6591924111549474,44.444444444444436,3,0.16666666666666666,R,S5,A0615,Ba,,221
55770,3_F,ATAATTTAGAGCGTGTGGT,3,19,45.835174705159766,0.9988665794027723,36.84210526315789,3,0.15789473684210525,Ba_3,F,3_R,ACCTGTTTGTGCATCTAC,18,46.495500536911955,1.6591924111549474,44.444444444444436,3,0.16666666666666666,R,S4,A0605,Ba,,11528
55836,3_F,ATAATTTAGAGCGTGTGGT,3,19,45.835174705159766,0.9988665794027723,36.84210526315789,3,0.15789473684210525,Ba_3,F,3_R,ACCTGTTTGTGCATCTAC,18,46.495500536911955,1.6591924111549474,44.444444444444436,3,0.16666666666666666,R,S144,BA-BaBTSeqBa007P2--xx-xxx-xxxx-021-SF,Ba,,45
55583,3_F,ATAATTTAGAGCGTGTGGT,3,19,45.835174705159766,0.9988665794027723,36.84210526315789,3,0.15789473684210525,Ba_2,F,3_R,ACCTGTTTGTGCATCTAC,18,46.495500536911955,1.6591924111549474,44.444444444444436,3,0.16666666666666666,R,S4,A0605,Ba,,11528
55586,3_F,ATAATTTAGAGCGTGTGGT,3,19,45.835174705159766,0.9988665794027723,36.84210526315789,3,0.15789473684210525,Ba_2,F,3_R,ACCTGTTTGTGCATCTAC,18,46.495500536911955,1.6591924111549474,44.444444444444436,3,0.16666666666666666,R,S6,A0706,Ba,,227
55585,3_F,ATAATTTAGAGCGTGTGGT,3,19,45.835174705159766,0.9988665794027723,36.84210526315789,3,0.15789473684210525,Ba_2,F,3_R,ACCTGTTTGTGCATCTAC,18,46.495500536911955,1.6591924111549474,44.444444444444436,3,0.16666666666666666,R,S2,A0330,Ba,,238
55584,3_F,ATAATTTAGAGCGTGTGGT,3,19,45.835174705159766,0.9988665794027723,36.84210526315789,3,0.15789473684210525,Ba_2,F,3_R,ACCTGTTTGTGCATCTAC,18,46.495500536911955,1.6591924111549474,44.444444444444436,3,0.16666666666666666,R,S5,A0615,Ba,,221
55649,3_F,ATAATTTAGAGCGTGTGGT,3,19,45.835174705159766,0.9988665794027723,36.84210526315789,3,0.15789473684210525,Ba_2,F,3_R,ACCTGTTTGTGCATCTAC,18,46.495500536911955,1.6591924111549474,44.444444444444436,3,0.16666666666666666,R,S144,BA-BaBTSeqBa007P2--xx-xxx-xxxx-021-SF,Ba,,45
56147,3_F,CGTGTGGTAAGGCAAG,3,16,46.436489367455245,0.03602807965797439,56.25,2,0.0,Ba_5_V35,F,3_R,ATCGTATCTTTTCACTTCACCT,22,49.33671505596897,2.864197608855754,36.36363636363637,4,0.18181818181818185,R,S6,A0706,Ba,,227
56146,3_F,CGTGTGGTAAGGCAAG,3,16,46.436489367455245,0.03602807965797439,56.25,2,0.0,Ba_5_V35,F,3_R,ATCGTATCTTTTCACTTCACCT,22,49.33671505596897,2.864197608855754,36.36363636363637,4,0.18181818181818185,R,S2,A0330,Ba,,238
56145,3_F,CGTGTGGTAAGGCAAG,3,16,46.436489367455245,0.03602807965797439,56.25,2,0.0,Ba_5_V35,F,3_R,ATCGTATCTTTTCACTTCACCT,22,49.33671505596897,2.864197608855754,36.36363636363637,4,0.18181818181818185,R,S5,A0615,Ba,,221
56144,3_F,CGTGTGGTAAGGCAAG,3,16,46.436489367455245,0.03602807965797439,56.25,2,0.0,Ba_5_V35,F,3_R,ATCGTATCTTTTCACTTCACCT,22,49.33671505596897,2.864197608855754,36.36363636363637,4,0.18181818181818185,R,S4,A0605,Ba,,11528
56210,3_F,CGTGTGGTAAGGCAAG,3,16,46.436489367455245,0.03602807965797439,56.25,2,0.0,Ba_5_V35,F,3_R,ATCGTATCTTTTCACTTCACCT,22,49.33671505596897,2.864197608855754,36.36363636363637,4,0.18181818181818185,R,S144,BA-BaBTSeqBa007P2--xx-xxx-xxxx-021-SF,Ba,,45
55960,3_F,CGTGTGGTAAGGCAAG,3,16,46.436489367455245,0.13430762786934736,56.25,2,0.0,Ba_4,F,3_R,ATCGTATCTTTTCACTTCACCT,22,49.33671505596897,3.0345333163830763,36.36363636363637,4,0.18181818181818185,R,S6,A0706,Ba,,227
55959,3_F,CGTGTGGTAAGGCAAG,3,16,46.436489367455245,0.13430762786934736,56.25,2,0.0,Ba_4,F,3_R,ATCGTATCTTTTCACTTCACCT,22,49.33671505596897,3.0345333163830763,36.36363636363637,4,0.18181818181818185,R,S2,A0330,Ba,,238
55958,3_F,CGTGTGGTAAGGCAAG,3,16,46.436489367455245,0.13430762786934736,56.25,2,0.0,Ba_4,F,3_R,ATCGTATCTTTTCACTTCACCT,22,49.33671505596897,3.0345333163830763,36.36363636363637,4,0.18181818181818185,R,S5,A0615,Ba,,221
55957,3_F,CGTGTGGTAAGGCAAG,3,16,46.436489367455245,0.13430762786934736,56.25,2,0.0,Ba_4,F,3_R,ATCGTATCTTTTCACTTCACCT,22,49.33671505596897,3.0345333163830763,36.36363636363637,4,0.18181818181818185,R,S4,A0605,Ba,,11528
56023,3_F,CGTGTGGTAAGGCAAG,3,16,46.436489367455245,0.13430762786934736,56.25,2,0.0,Ba_4,F,3_R,ATCGTATCTTTTCACTTCACCT,22,49.33671505596897,3.0345333163830763,36.36363636363637,4,0.18181818181818185,R,S144,BA-BaBTSeqBa007P2--xx-xxx-xxxx-021-SF,Ba,,45
58204,3_F,AGTTGATTGAGCGTACAACT,3,20,49.27771767134141,1.8884939833427052,40.0,2,0.0,Yp_1_V2,F,3_R,GGAATGAAACGACAGTGAGAA,21,50.474533561921426,0.6916780927626931,42.857142857142854,3,0.14285714285714285,R,S6,A0706,Ba,,227
58203,3_F,AGTTGATTGAGCGTACAACT,3,20,49.27771767134141,1.8884939833427052,40.0,2,0.0,Yp_1_V2,F,3_R,GGAATGAAACGACAGTGAGAA,21,50.474533561921426,0.6916780927626931,42.857142857142854,3,0.14285714285714285,R,S2,A0330,Ba,,238
58202,3_F,AGTTGATTGAGCGTACAACT,3,20,49.27771767134141,1.8884939833427052,40.0,2,0.0,Yp_1_V2,F,3_R,GGAATGAAACGACAGTGAGAA,21,50.474533561921426,0.6916780927626931,42.857142857142854,3,0.14285714285714285,R,S5,A0615,Ba,,221
58201,3_F,AGTTGATTGAGCGTACAACT,3,20,49.27771767134141,1.8884939833427052,40.0,2,0.0,Yp_1_V2,F,3_R,GGAATGAAACGACAGTGAGAA,21,50.474533561921426,0.6916780927626931,42.857142857142854,3,0.14285714285714285,R,S4,A0605,Ba,,11528
58267,3_F,AGTTGATTGAGCGTACAACT,3,20,49.27771767134141,1.8884939833427052,40.0,2,0.0,Yp_1_V2,F,3_R,GGAATGAAACGACAGTGAGAA,21,50.474533561921426,0.6916780927626931,42.857142857142854,3,0.14285714285714285,R,S144,BA-BaBTSeqBa007P2--xx-xxx-xxxx-021-SF,Ba,,45
57893,3_F,CAAGCTCGACACAAATACCAATAG,3,24,52.423267676571186,2.3660798327572934,41.66666666666667,3,0.125,Ft_2_V2,F,3_R,AACAGGGTCTTCGGCGGTT,19,55.95101048103169,5.893822637217795,57.894736842105274,3,0.15789473684210525,R,S144,BA-BaBTSeqBa007P2--xx-xxx-xxxx-021-SF,Ba,,45
58080,3_F,CAAGCTCGACACAAATACCAATAG,3,24,52.423267676571186,2.1504918371611765,41.66666666666667,3,0.125,Ft_2,F,3_R,AACAGGGTCTTCGGCGGTT,19,55.95101048103169,5.678234641621678,57.894736842105274,3,0.15789473684210525,R,S144,BA-BaBTSeqBa007P2--xx-xxx-xxxx-021-SF,Ba,,45
58017,3_F,CAAGCTCGACACAAATACCAATAG,3,24,52.423267676571186,2.1504918371611765,41.66666666666667,3,0.125,Ft_2,F,3_R,AACAGGGTCTTCGGCGGTT,19,55.95101048103169,5.678234641621678,57.894736842105274,3,0.15789473684210525,R,S6,A0706,Ba,,227
58016,3_F,CAAGCTCGACACAAATACCAATAG,3,24,52.423267676571186,2.1504918371611765,41.66666666666667,3,0.125,Ft_2,F,3_R,AACAGGGTCTTCGGCGGTT,19,55.95101048103169,5.678234641621678,57.894736842105274,3,0.15789473684210525,R,S2,A0330,Ba,,238
58015,3_F,CAAGCTCGACACAAATACCAATAG,3,24,52.423267676571186,2.1504918371611765,41.66666666666667,3,0.125,Ft_2,F,3_R,AACAGGGTCTTCGGCGGTT,19,55.95101048103169,5.678234641621678,57.894736842105274,3,0.15789473684210525,R,S5,A0615,Ba,,221
58014,3_F,CAAGCTCGACACAAATACCAATAG,3,24,52.423267676571186,2.1504918371611765,41.66666666666667,3,0.125,Ft_2,F,3_R,AACAGGGTCTTCGGCGGTT,19,55.95101048103169,5.678234641621678,57.894736842105274,3,0.15789473684210525,R,S4,A0605,Ba,,11528
58641,3_F,TTGCAGATGAGGAATATGG,3,19,46.25540318043204,5.74182704005235,42.105263157894726,2,0.0,Yp_2,F,3_R,CTGTGGAACGATGATCAACA,20,50.081282186895685,1.9159480335886985,45.0,2,0.0,R,S144,BA-BaBTSeqBa007P2--xx-xxx-xxxx-021-SF,Ba,,45
58578,3_F,TTGCAGATGAGGAATATGG,3,19,46.25540318043204,5.74182704005235,42.105263157894726,2,0.0,Yp_2,F,3_R,CTGTGGAACGATGATCAACA,20,50.081282186895685,1.9159480335886985,45.0,2,0.0,R,S6,A0706,Ba,,227
58577,3_F,TTGCAGATGAGGAATATGG,3,19,46.25540318043204,5.74182704005235,42.105263157894726,2,0.0,Yp_2,F,3_R,CTGTGGAACGATGATCAACA,20,50.081282186895685,1.9159480335886985,45.0,2,0.0,R,S2,A0330,Ba,,238
58576,3_F,TTGCAGATGAGGAATATGG,3,19,46.25540318043204,5.74182704005235,42.105263157894726,2,0.0,Yp_2,F,3_R,CTGTGGAACGATGATCAACA,20,50.081282186895685,1.9159480335886985,45.0,2,0.0,R,S5,A0615,Ba,,221
58575,3_F,TTGCAGATGAGGAATATGG,3,19,46.25540318043204,5.74182704005235,42.105263157894726,2,0.0,Yp_2,F,3_R,CTGTGGAACGATGATCAACA,20,50.081282186895685,1.9159480335886985,45.0,2,0.0,R,S4,A0605,Ba,,11528
58391,3_F,AGTTGATTGAGCGTACAACT,3,20,49.27771767134141,2.147172081301278,40.0,2,0.0,Yp_1,F,3_R,GGAATGAAACGACAGTGAGAA,21,50.474533561921426,0.9503561907212656,42.857142857142854,3,0.14285714285714285,R,S6,A0706,Ba,,227
58390,3_F,AGTTGATTGAGCGTACAACT,3,20,49.27771767134141,2.147172081301278,40.0,2,0.0,Yp_1,F,3_R,GGAATGAAACGACAGTGAGAA,21,50.474533561921426,0.9503561907212656,42.857142857142854,3,0.14285714285714285,R,S2,A0330,Ba,,238
58389,3_F,AGTTGATTGAGCGTACAACT,3,20,49.27771767134141,2.147172081301278,40.0,2,0.0,Yp_1,F,3_R,GGAATGAAACGACAGTGAGAA,21,50.474533561921426,0.9503561907212656,42.857142857142854,3,0.14285714285714285,R,S5,A0615,Ba,,221
58388,3_F,AGTTGATTGAGCGTACAACT,3,20,49.27771767134141,2.147172081301278,40.0,2,0.0,Yp_1,F,3_R,GGAATGAAACGACAGTGAGAA,21,50.474533561921426,0.9503561907212656,42.857142857142854,3,0.14285714285714285,R,S4,A0605,Ba,,11528
58454,3_F,AGTTGATTGAGCGTACAACT,3,20,49.27771767134141,2.147172081301278,40.0,2,0.0,Yp_1,F,3_R,GGAATGAAACGACAGTGAGAA,21,50.474533561921426,0.9503561907212656,42.857142857142854,3,0.14285714285714285,R,S144,BA-BaBTSeqBa007P2--xx-xxx-xxxx-021-SF,Ba,,45
57332,3_F,AGCGTGTGGTAAGGCA,3,16,49.6042124801599,1.1108721266428887,56.25,2,0.0,Ba_OkX,F,3_R,TCTACTACTACAACGCCCTCTAT,23,51.73485469480056,1.0197700879977702,43.47826086956522,3,0.13043478260869565,R,S144,BA-BaBTSeqBa007P2--xx-xxx-xxxx-021-SF,Ba,,45
57269,3_F,AGCGTGTGGTAAGGCA,3,16,49.6042124801599,1.1108721266428887,56.25,2,0.0,Ba_OkX,F,3_R,TCTACTACTACAACGCCCTCTAT,23,51.73485469480056,1.0197700879977702,43.47826086956522,3,0.13043478260869565,R,S6,A0706,Ba,,227
57268,3_F,AGCGTGTGGTAAGGCA,3,16,49.6042124801599,1.1108721266428887,56.25,2,0.0,Ba_OkX,F,3_R,TCTACTACTACAACGCCCTCTAT,23,51.73485469480056,1.0197700879977702,43.47826086956522,3,0.13043478260869565,R,S2,A0330,Ba,,238
57267,3_F,AGCGTGTGGTAAGGCA,3,16,49.6042124801599,1.1108721266428887,56.25,2,0.0,Ba_OkX,F,3_R,TCTACTACTACAACGCCCTCTAT,23,51.73485469480056,1.0197700879977702,43.47826086956522,3,0.13043478260869565,R,S5,A0615,Ba,,221
57266,3_F,AGCGTGTGGTAAGGCA,3,16,49.6042124801599,1.1108721266428887,56.25,2,0.0,Ba_OkX,F,3_R,TCTACTACTACAACGCCCTCTAT,23,51.73485469480056,1.0197700879977702,43.47826086956522,3,0.13043478260869565,R,S4,A0605,Ba,,11528
57082,3_F,TTAGAGCGTGTGGTAAGGC,3,19,51.46953400398121,0.1028798145565375,52.631578947368425,2,0.0,Ba_LowSH,F,3_R,TACTACTACAACGCCCTCTATC,22,50.45864548057665,1.1137683379610976,45.45454545454545,3,0.13636363636363635,R,S6,A0706,Ba,,227
57081,3_F,TTAGAGCGTGTGGTAAGGC,3,19,51.46953400398121,0.1028798145565375,52.631578947368425,2,0.0,Ba_LowSH,F,3_R,TACTACTACAACGCCCTCTATC,22,50.45864548057665,1.1137683379610976,45.45454545454545,3,0.13636363636363635,R,S2,A0330,Ba,,238
57080,3_F,TTAGAGCGTGTGGTAAGGC,3,19,51.46953400398121,0.1028798145565375,52.631578947368425,2,0.0,Ba_LowSH,F,3_R,TACTACTACAACGCCCTCTATC,22,50.45864548057665,1.1137683379610976,45.45454545454545,3,0.13636363636363635,R,S5,A0615,Ba,,221
57079,3_F,TTAGAGCGTGTGGTAAGGC,3,19,51.46953400398121,0.1028798145565375,52.631578947368425,2,0.0,Ba_LowSH,F,3_R,TACTACTACAACGCCCTCTATC,22,50.45864548057665,1.1137683379610976,45.45454545454545,3,0.13636363636363635,R,S4,A0605,Ba,,11528
57145,3_F,TTAGAGCGTGTGGTAAGGC,3,19,51.46953400398121,0.1028798145565375,52.631578947368425,2,0.0,Ba_LowSH,F,3_R,TACTACTACAACGCCCTCTATC,22,50.45864548057665,1.1137683379610976,45.45454545454545,3,0.13636363636363635,R,S144,BA-BaBTSeqBa007P2--xx-xxx-xxxx-021-SF,Ba,,45
57706,3_F,CGTATTATTGACTCAAGCTCG,3,21,49.054749523807686,0.19845792358366765,42.857142857142854,2,0.0,Ft_1,F,3_R,CAACAGGGTCTTCGGCGGTT,20,57.192764629451524,8.336473029227498,60.0,3,0.15,R,S144,BA-BaBTSeqBa007P2--xx-xxx-xxxx-021-SF,Ba,,45
57830,3_F,CAAGCTCGACACAAATACCAATAG,3,24,52.423267676571186,2.3660798327572934,41.66666666666667,3,0.125,Ft_2_V2,F,3_R,AACAGGGTCTTCGGCGGTT,19,55.95101048103169,5.893822637217795,57.894736842105274,3,0.15789473684210525,R,S6,A0706,Ba,,227
57828,3_F,CAAGCTCGACACAAATACCAATAG,3,24,52.423267676571186,2.3660798327572934,41.66666666666667,3,0.125,Ft_2_V2,F,3_R,AACAGGGTCTTCGGCGGTT,19,55.95101048103169,5.893822637217795,57.894736842105274,3,0.15789473684210525,R,S5,A0615,Ba,,221
57827,3_F,CAAGCTCGACACAAATACCAATAG,3,24,52.423267676571186,2.3660798327572934,41.66666666666667,3,0.125,Ft_2_V2,F,3_R,AACAGGGTCTTCGGCGGTT,19,55.95101048103169,5.893822637217795,57.894736842105274,3,0.15789473684210525,R,S4,A0605,Ba,,11528
57829,3_F,CAAGCTCGACACAAATACCAATAG,3,24,52.423267676571186,2.3660798327572934,41.66666666666667,3,0.125,Ft_2_V2,F,3_R,AACAGGGTCTTCGGCGGTT,19,55.95101048103169,5.893822637217795,57.894736842105274,3,0.15789473684210525,R,S2,A0330,Ba,,238
57519,3_F,AGACAATTCCAGGGTACGT,3,19,49.77916692296021,2.564043262217588,47.368421052631575,3,0.15789473684210525,Ba_V45,F,3_R,ATCGTATCTTTTCACTTCACCT,22,49.33671505596897,2.121591395226353,36.36363636363637,4,0.18181818181818185,R,S144,BA-BaBTSeqBa007P2--xx-xxx-xxxx-021-SF,Ba,,45
57456,3_F,AGACAATTCCAGGGTACGT,3,19,49.77916692296021,2.564043262217588,47.368421052631575,3,0.15789473684210525,Ba_V45,F,3_R,ATCGTATCTTTTCACTTCACCT,22,49.33671505596897,2.121591395226353,36.36363636363637,4,0.18181818181818185,R,S6,A0706,Ba,,227
57455,3_F,AGACAATTCCAGGGTACGT,3,19,49.77916692296021,2.564043262217588,47.368421052631575,3,0.15789473684210525,Ba_V45,F,3_R,ATCGTATCTTTTCACTTCACCT,22,49.33671505596897,2.121591395226353,36.36363636363637,4,0.18181818181818185,R,S2,A0330,Ba,,238
57454,3_F,AGACAATTCCAGGGTACGT,3,19,49.77916692296021,2.564043262217588,47.368421052631575,3,0.15789473684210525,Ba_V45,F,3_R,ATCGTATCTTTTCACTTCACCT,22,49.33671505596897,2.121591395226353,36.36363636363637,4,0.18181818181818185,R,S5,A0615,Ba,,221
57453,3_F,AGACAATTCCAGGGTACGT,3,19,49.77916692296021,2.564043262217588,47.368421052631575,3,0.15789473684210525,Ba_V45,F,3_R,ATCGTATCTTTTCACTTCACCT,22,49.33671505596897,2.121591395226353,36.36363636363637,4,0.18181818181818185,R,S4,A0605,Ba,,11528
57643,3_F,CGTATTATTGACTCAAGCTCG,3,21,49.054749523807686,0.19845792358366765,42.857142857142854,2,0.0,Ft_1,F,3_R,CAACAGGGTCTTCGGCGGTT,20,57.192764629451524,8.336473029227498,60.0,3,0.15,R,S6,A0706,Ba,,227
57642,3_F,CGTATTATTGACTCAAGCTCG,3,21,49.054749523807686,0.19845792358366765,42.857142857142854,2,0.0,Ft_1,F,3_R,CAACAGGGTCTTCGGCGGTT,20,57.192764629451524,8.336473029227498,60.0,3,0.15,R,S2,A0330,Ba,,238
57641,3_F,CGTATTATTGACTCAAGCTCG,3,21,49.054749523807686,0.19845792358366765,42.857142857142854,2,0.0,Ft_1,F,3_R,CAACAGGGTCTTCGGCGGTT,20,57.192764629451524,8.336473029227498,60.0,3,0.15,R,S5,A0615,Ba,,221
57640,3_F,CGTATTATTGACTCAAGCTCG,3,21,49.054749523807686,0.19845792358366765,42.857142857142854,2,0.0,Ft_1,F,3_R,CAACAGGGTCTTCGGCGGTT,20,57.192764629451524,8.336473029227498,60.0,3,0.15,R,S4,A0605,Ba,,11528
55462,3_F,ATAATTTAGAGCGTGTGGT,3,19,45.835174705159766,0.9988665794027723,36.84210526315789,3,0.15789473684210525,Ba_1,F,3_R,ACCTGTTTGTGCATCTAC,18,46.495500536911955,1.6591924111549474,44.444444444444436,3,0.16666666666666666,R,S144,BA-BaBTSeqBa007P2--xx-xxx-xxxx-021-SF,Ba,,45
55399,3_F,ATAATTTAGAGCGTGTGGT,3,19,45.835174705159766,0.9988665794027723,36.84210526315789,3,0.15789473684210525,Ba_1,F,3_R,ACCTGTTTGTGCATCTAC,18,46.495500536911955,1.6591924111549474,44.444444444444436,3,0.16666666666666666,R,S6,A0706,Ba,,227
55398,3_F,ATAATTTAGAGCGTGTGGT,3,19,45.835174705159766,0.9988665794027723,36.84210526315789,3,0.15789473684210525,Ba_1,F,3_R,ACCTGTTTGTGCATCTAC,18,46.495500536911955,1.6591924111549474,44.444444444444436,3,0.16666666666666666,R,S2,A0330,Ba,,238
55397,3_F,ATAATTTAGAGCGTGTGGT,3,19,45.835174705159766,0.9988665794027723,36.84210526315789,3,0.15789473684210525,Ba_1,F,3_R,ACCTGTTTGTGCATCTAC,18,46.495500536911955,1.6591924111549474,44.444444444444436,3,0.16666666666666666,R,S5,A0615,Ba,,221
55396,3_F,ATAATTTAGAGCGTGTGGT,3,19,45.835174705159766,0.9988665794027723,36.84210526315789,3,0.15789473684210525,Ba_1,F,3_R,ACCTGTTTGTGCATCTAC,18,46.495500536911955,1.6591924111549474,44.444444444444436,3,0.16666666666666666,R,S4,A0605,Ba,,11528
5751,4_F,TCTTCTCTGCAGTTGGTGAT,4,20,50.60319300851865,1.746901408294626,45.0,2,0.0,Ft_1,F,4_R,CTTGGGTATTAACTATTGCGGCT,23,52.97391731291372,4.1176257126897085,43.47826086956522,3,0.13043478260869565,R,S144,BA-BaBTSeqBa007P2--xx-xxx-xxxx-021-SF,Ba,,869
5913,4_F,ACATCTGGTCAACCAGGATCATT,4,23,53.685714017944285,3.6285261741304,43.47826086956522,2,0.0,Ft_2_V2,F,4_R,TGGACTACCTGCAGCAAT,18,49.94538617668042,0.11180166713347717,50.0,2,0.0,R,S144,BA-BaBTSeqBa007P2--xx-xxx-xxxx-021-SF,Ba,,869
5851,4_F,ACATCTGGTCAACCAGGATCATT,4,23,53.685714017944285,3.6285261741304,43.47826086956522,2,0.0,Ft_2_V2,F,4_R,TGGACTACCTGCAGCAAT,18,49.94538617668042,0.11180166713347717,50.0,2,0.0,R,S2,A0330,Ba,,0
5850,4_F,ACATCTGGTCAACCAGGATCATT,4,23,53.685714017944285,3.6285261741304,43.47826086956522,2,0.0,Ft_2_V2,F,4_R,TGGACTACCTGCAGCAAT,18,49.94538617668042,0.11180166713347717,50.0,2,0.0,R,S5,A0615,Ba,,0
5849,4_F,ACATCTGGTCAACCAGGATCATT,4,23,53.685714017944285,3.6285261741304,43.47826086956522,2,0.0,Ft_2_V2,F,4_R,TGGACTACCTGCAGCAAT,18,49.94538617668042,0.11180166713347717,50.0,2,0.0,R,S6,A0706,Ba,,0
5848,4_F,ACATCTGGTCAACCAGGATCATT,4,23,53.685714017944285,3.6285261741304,43.47826086956522,2,0.0,Ft_2_V2,F,4_R,TGGACTACCTGCAGCAAT,18,49.94538617668042,0.11180166713347717,50.0,2,0.0,R,S4,A0605,Ba,,153
5526,4_F,CCAATTGAACGTCCTCT,4,17,45.38154498062232,1.83357868012029,47.058823529411754,2,0.0,Ba_V45,F,4_R,CAGAGTAGTACACATTACTGATG,23,48.34992045411389,1.1347967933712724,39.130434782608695,2,0.0,R,S5,A0615,Ba,,0
5525,4_F,CCAATTGAACGTCCTCT,4,17,45.38154498062232,1.83357868012029,47.058823529411754,2,0.0,Ba_V45,F,4_R,CAGAGTAGTACACATTACTGATG,23,48.34992045411389,1.1347967933712724,39.130434782608695,2,0.0,R,S6,A0706,Ba,,0
5524,4_F,CCAATTGAACGTCCTCT,4,17,45.38154498062232,1.83357868012029,47.058823529411754,2,0.0,Ba_V45,F,4_R,CAGAGTAGTACACATTACTGATG,23,48.34992045411389,1.1347967933712724,39.130434782608695,2,0.0,R,S4,A0605,Ba,,153
4392,4_F,TTATCGTAACGGAATTAC,4,18,40.9378994464451,3.898408679311899,33.33333333333333,2,0.0,Ba_1,F,4_R,TTGTTTGAAGTGCTGTATGTTT,22,49.231551444787954,4.395243319030953,31.818181818181817,3,0.2727272727272727,R,S5,A0615,Ba,,0