,Primer_Name_L,Seq_L,Amplicon,Primer_Length_L,Tm_L,Delta Tm_L,GC_Content_L,Length_Longest_Homopolymer_L,Percent_Homopolymer_L,exp,flank_L,Primer_Name_R,Seq_R,Primer_Length_R,Tm_R,Delta Tm_R,GC_Content_R,Length_Longest_Homopolymer_R,Percent_Homopolymer_R,flank_R,sample_id,sample_name,species,strain,n_reads
4393,4_F,TTATCGTAACGGAATTAC,4,18,40.9378994464451,3.898408679311899,33.33333333333333,2,0.0,Ba_1,F,4_R,TTGTTTGAAGTGCTGTATGTTT,22,49.231551444787954,4.395243319030953,31.818181818181817,3,0.2727272727272727,R,S2,A0330,Ba,,0
5527,4_F,CCAATTGAACGTCCTCT,4,17,45.38154498062232,1.83357868012029,47.058823529411754,2,0.0,Ba_V45,F,4_R,CAGAGTAGTACACATTACTGATG,23,48.34992045411389,1.1347967933712724,39.130434782608695,2,0.0,R,S2,A0330,Ba,,0
4455,4_F,TTATCGTAACGGAATTAC,4,18,40.9378994464451,3.898408679311899,33.33333333333333,2,0.0,Ba_1,F,4_R,TTGTTTGAAGTGCTGTATGTTT,22,49.231551444787954,4.395243319030953,31.818181818181817,3,0.2727272727272727,R,S144,BA-BaBTSeqBa007P2--xx-xxx-xxxx-021-SF,Ba,,869
5689,4_F,TCTTCTCTGCAGTTGGTGAT,4,20,50.60319300851865,1.746901408294626,45.0,2,0.0,Ft_1,F,4_R,CTTGGGTATTAACTATTGCGGCT,23,52.97391731291372,4.1176257126897085,43.47826086956522,3,0.13043478260869565,R,S2,A0330,Ba,,0
5688,4_F,TCTTCTCTGCAGTTGGTGAT,4,20,50.60319300851865,1.746901408294626,45.0,2,0.0,Ft_1,F,4_R,CTTGGGTATTAACTATTGCGGCT,23,52.97391731291372,4.1176257126897085,43.47826086956522,3,0.13043478260869565,R,S5,A0615,Ba,,0
5687,4_F,TCTTCTCTGCAGTTGGTGAT,4,20,50.60319300851865,1.746901408294626,45.0,2,0.0,Ft_1,F,4_R,CTTGGGTATTAACTATTGCGGCT,23,52.97391731291372,4.1176257126897085,43.47826086956522,3,0.13043478260869565,R,S6,A0706,Ba,,0
5686,4_F,TCTTCTCTGCAGTTGGTGAT,4,20,50.60319300851865,1.746901408294626,45.0,2,0.0,Ft_1,F,4_R,CTTGGGTATTAACTATTGCGGCT,23,52.97391731291372,4.1176257126897085,43.47826086956522,3,0.13043478260869565,R,S4,A0605,Ba,,153
5589,4_F,CCAATTGAACGTCCTCT,4,17,45.38154498062232,1.83357868012029,47.058823529411754,2,0.0,Ba_V45,F,4_R,CAGAGTAGTACACATTACTGATG,23,48.34992045411389,1.1347967933712724,39.130434782608695,2,0.0,R,S144,BA-BaBTSeqBa007P2--xx-xxx-xxxx-021-SF,Ba,,869
6337,4_F,GCTTCCTACTTCTTAGCGGCT,4,21,54.03428836208076,2.6093986094380743,52.38095238095239,2,0.0,Yp_1,F,4_R,GTCATTGCAGCATCAGGAA,19,50.176587341228704,1.248302411413988,47.368421052631575,2,0.0,R,S2,A0330,Ba,,0
6336,4_F,GCTTCCTACTTCTTAGCGGCT,4,21,54.03428836208076,2.6093986094380743,52.38095238095239,2,0.0,Yp_1,F,4_R,GTCATTGCAGCATCAGGAA,19,50.176587341228704,1.248302411413988,47.368421052631575,2,0.0,R,S5,A0615,Ba,,0
6335,4_F,GCTTCCTACTTCTTAGCGGCT,4,21,54.03428836208076,2.6093986094380743,52.38095238095239,2,0.0,Yp_1,F,4_R,GTCATTGCAGCATCAGGAA,19,50.176587341228704,1.248302411413988,47.368421052631575,2,0.0,R,S6,A0706,Ba,,0
6334,4_F,GCTTCCTACTTCTTAGCGGCT,4,21,54.03428836208076,2.6093986094380743,52.38095238095239,2,0.0,Yp_1,F,4_R,GTCATTGCAGCATCAGGAA,19,50.176587341228704,1.248302411413988,47.368421052631575,2,0.0,R,S4,A0605,Ba,,153
6237,4_F,GCTTCCTACTTCTTAGCGGCT,4,21,54.03428836208076,2.8680767073966464,52.38095238095239,2,0.0,Yp_1_V2,F,4_R,GTCATTGCAGCATCAGGAA,19,50.176587341228704,0.9896243134554156,47.368421052631575,2,0.0,R,S144,BA-BaBTSeqBa007P2--xx-xxx-xxxx-021-SF,Ba,,869
6399,4_F,GCTTCCTACTTCTTAGCGGCT,4,21,54.03428836208076,2.6093986094380743,52.38095238095239,2,0.0,Yp_1,F,4_R,GTCATTGCAGCATCAGGAA,19,50.176587341228704,1.248302411413988,47.368421052631575,2,0.0,R,S144,BA-BaBTSeqBa007P2--xx-xxx-xxxx-021-SF,Ba,,869
6075,4_F,ACATCTGGTCAACCAGGATCATT,4,23,53.685714017944285,3.412938178534283,43.47826086956522,2,0.0,Ft_2,F,4_R,TGGACTACCTGCAGCAAT,18,49.94538617668042,0.327389662729594,50.0,2,0.0,R,S144,BA-BaBTSeqBa007P2--xx-xxx-xxxx-021-SF,Ba,,869
6013,4_F,ACATCTGGTCAACCAGGATCATT,4,23,53.685714017944285,3.412938178534283,43.47826086956522,2,0.0,Ft_2,F,4_R,TGGACTACCTGCAGCAAT,18,49.94538617668042,0.327389662729594,50.0,2,0.0,R,S2,A0330,Ba,,0
6012,4_F,ACATCTGGTCAACCAGGATCATT,4,23,53.685714017944285,3.412938178534283,43.47826086956522,2,0.0,Ft_2,F,4_R,TGGACTACCTGCAGCAAT,18,49.94538617668042,0.327389662729594,50.0,2,0.0,R,S5,A0615,Ba,,0
6011,4_F,ACATCTGGTCAACCAGGATCATT,4,23,53.685714017944285,3.412938178534283,43.47826086956522,2,0.0,Ft_2,F,4_R,TGGACTACCTGCAGCAAT,18,49.94538617668042,0.327389662729594,50.0,2,0.0,R,S6,A0706,Ba,,0
6010,4_F,ACATCTGGTCAACCAGGATCATT,4,23,53.685714017944285,3.412938178534283,43.47826086956522,2,0.0,Ft_2,F,4_R,TGGACTACCTGCAGCAAT,18,49.94538617668042,0.327389662729594,50.0,2,0.0,R,S4,A0605,Ba,,153
6175,4_F,GCTTCCTACTTCTTAGCGGCT,4,21,54.03428836208076,2.8680767073966464,52.38095238095239,2,0.0,Yp_1_V2,F,4_R,GTCATTGCAGCATCAGGAA,19,50.176587341228704,0.9896243134554156,47.368421052631575,2,0.0,R,S2,A0330,Ba,,0
6174,4_F,GCTTCCTACTTCTTAGCGGCT,4,21,54.03428836208076,2.8680767073966464,52.38095238095239,2,0.0,Yp_1_V2,F,4_R,GTCATTGCAGCATCAGGAA,19,50.176587341228704,0.9896243134554156,47.368421052631575,2,0.0,R,S5,A0615,Ba,,0
6173,4_F,GCTTCCTACTTCTTAGCGGCT,4,21,54.03428836208076,2.8680767073966464,52.38095238095239,2,0.0,Yp_1_V2,F,4_R,GTCATTGCAGCATCAGGAA,19,50.176587341228704,0.9896243134554156,47.368421052631575,2,0.0,R,S6,A0706,Ba,,0
6172,4_F,GCTTCCTACTTCTTAGCGGCT,4,21,54.03428836208076,2.8680767073966464,52.38095238095239,2,0.0,Yp_1_V2,F,4_R,GTCATTGCAGCATCAGGAA,19,50.176587341228704,0.9896243134554156,47.368421052631575,2,0.0,R,S4,A0605,Ba,,153
5200,4_F,AATTGAACGTCCTCTAT,4,17,40.814335108306686,5.487846631279197,35.29411764705883,2,0.0,Ba_5_V3,F,4_R,GCAGATGACTTTGTTATAGTTTG,23,48.36246156739713,2.060279827811243,34.78260869565217,3,0.2608695652173913,R,S4,A0605,Ba,,153
5201,4_F,AATTGAACGTCCTCTAT,4,17,40.814335108306686,5.487846631279197,35.29411764705883,2,0.0,Ba_5_V3,F,4_R,GCAGATGACTTTGTTATAGTTTG,23,48.36246156739713,2.060279827811243,34.78260869565217,3,0.2608695652173913,R,S6,A0706,Ba,,0
5202,4_F,AATTGAACGTCCTCTAT,4,17,40.814335108306686,5.487846631279197,35.29411764705883,2,0.0,Ba_5_V3,F,4_R,GCAGATGACTTTGTTATAGTTTG,23,48.36246156739713,2.060279827811243,34.78260869565217,3,0.2608695652173913,R,S5,A0615,Ba,,0
5203,4_F,AATTGAACGTCCTCTAT,4,17,40.814335108306686,5.487846631279197,35.29411764705883,2,0.0,Ba_5_V3,F,4_R,GCAGATGACTTTGTTATAGTTTG,23,48.36246156739713,2.060279827811243,34.78260869565217,3,0.2608695652173913,R,S2,A0330,Ba,,0
5038,4_F,AATTGAACGTCCTCTAT,4,17,40.814335108306686,5.658182338806518,35.29411764705883,2,0.0,Ba_5_V35,F,4_R,GCAGATGACTTTGTTATAGTTTG,23,48.36246156739713,1.8899441202839211,34.78260869565217,3,0.2608695652173913,R,S4,A0605,Ba,,153
5039,4_F,AATTGAACGTCCTCTAT,4,17,40.814335108306686,5.658182338806518,35.29411764705883,2,0.0,Ba_5_V35,F,4_R,GCAGATGACTTTGTTATAGTTTG,23,48.36246156739713,1.8899441202839211,34.78260869565217,3,0.2608695652173913,R,S6,A0706,Ba,,0
5040,4_F,AATTGAACGTCCTCTAT,4,17,40.814335108306686,5.658182338806518,35.29411764705883,2,0.0,Ba_5_V35,F,4_R,GCAGATGACTTTGTTATAGTTTG,23,48.36246156739713,1.8899441202839211,34.78260869565217,3,0.2608695652173913,R,S5,A0615,Ba,,0
5041,4_F,AATTGAACGTCCTCTAT,4,17,40.814335108306686,5.658182338806518,35.29411764705883,2,0.0,Ba_5_V35,F,4_R,GCAGATGACTTTGTTATAGTTTG,23,48.36246156739713,1.8899441202839211,34.78260869565217,3,0.2608695652173913,R,S2,A0330,Ba,,0
5103,4_F,AATTGAACGTCCTCTAT,4,17,40.814335108306686,5.658182338806518,35.29411764705883,2,0.0,Ba_5_V35,F,4_R,GCAGATGACTTTGTTATAGTTTG,23,48.36246156739713,1.8899441202839211,34.78260869565217,3,0.2608695652173913,R,S144,BA-BaBTSeqBa007P2--xx-xxx-xxxx-021-SF,Ba,,869
5427,4_F,CCAATTGAACGTCCTCT,4,17,45.38154498062232,1.8615186448932877,47.058823529411754,2,0.0,Ba_6_V4,F,4_R,CAGAGTAGTACACATTACTGATG,23,48.34992045411389,1.106856828598275,39.130434782608695,2,0.0,R,S144,BA-BaBTSeqBa007P2--xx-xxx-xxxx-021-SF,Ba,,869
5265,4_F,AATTGAACGTCCTCTAT,4,17,40.814335108306686,5.487846631279197,35.29411764705883,2,0.0,Ba_5_V3,F,4_R,GCAGATGACTTTGTTATAGTTTG,23,48.36246156739713,2.060279827811243,34.78260869565217,3,0.2608695652173913,R,S144,BA-BaBTSeqBa007P2--xx-xxx-xxxx-021-SF,Ba,,869
5362,4_F,CCAATTGAACGTCCTCT,4,17,45.38154498062232,1.8615186448932877,47.058823529411754,2,0.0,Ba_6_V4,F,4_R,CAGAGTAGTACACATTACTGATG,23,48.34992045411389,1.106856828598275,39.130434782608695,2,0.0,R,S4,A0605,Ba,,153
5363,4_F,CCAATTGAACGTCCTCT,4,17,45.38154498062232,1.8615186448932877,47.058823529411754,2,0.0,Ba_6_V4,F,4_R,CAGAGTAGTACACATTACTGATG,23,48.34992045411389,1.106856828598275,39.130434782608695,2,0.0,R,S6,A0706,Ba,,0
5364,4_F,CCAATTGAACGTCCTCT,4,17,45.38154498062232,1.8615186448932877,47.058823529411754,2,0.0,Ba_6_V4,F,4_R,CAGAGTAGTACACATTACTGATG,23,48.34992045411389,1.106856828598275,39.130434782608695,2,0.0,R,S5,A0615,Ba,,0
5365,4_F,CCAATTGAACGTCCTCT,4,17,45.38154498062232,1.8615186448932877,47.058823529411754,2,0.0,Ba_6_V4,F,4_R,CAGAGTAGTACACATTACTGATG,23,48.34992045411389,1.106856828598275,39.130434782608695,2,0.0,R,S2,A0330,Ba,,0
4617,4_F,TTATCGTAACGGAATTAC,4,18,40.9378994464451,3.898408679311899,33.33333333333333,2,0.0,Ba_2,F,4_R,TTGTTTGAAGTGCTGTATGTTT,22,49.231551444787954,4.395243319030953,31.818181818181817,3,0.2727272727272727,R,S144,BA-BaBTSeqBa007P2--xx-xxx-xxxx-021-SF,Ba,,869
4714,4_F,TTATCGTAACGGAATTAC,4,18,40.9378994464451,3.898408679311899,33.33333333333333,2,0.0,Ba_3,F,4_R,TTGTTTGAAGTGCTGTATGTTT,22,49.231551444787954,4.395243319030953,31.818181818181817,3,0.2727272727272727,R,S4,A0605,Ba,,153
4715,4_F,TTATCGTAACGGAATTAC,4,18,40.9378994464451,3.898408679311899,33.33333333333333,2,0.0,Ba_3,F,4_R,TTGTTTGAAGTGCTGTATGTTT,22,49.231551444787954,4.395243319030953,31.818181818181817,3,0.2727272727272727,R,S6,A0706,Ba,,0
4716,4_F,TTATCGTAACGGAATTAC,4,18,40.9378994464451,3.898408679311899,33.33333333333333,2,0.0,Ba_3,F,4_R,TTGTTTGAAGTGCTGTATGTTT,22,49.231551444787954,4.395243319030953,31.818181818181817,3,0.2727272727272727,R,S5,A0615,Ba,,0
4717,4_F,TTATCGTAACGGAATTAC,4,18,40.9378994464451,3.898408679311899,33.33333333333333,2,0.0,Ba_3,F,4_R,TTGTTTGAAGTGCTGTATGTTT,22,49.231551444787954,4.395243319030953,31.818181818181817,3,0.2727272727272727,R,S2,A0330,Ba,,0
4552,4_F,TTATCGTAACGGAATTAC,4,18,40.9378994464451,3.898408679311899,33.33333333333333,2,0.0,Ba_2,F,4_R,TTGTTTGAAGTGCTGTATGTTT,22,49.231551444787954,4.395243319030953,31.818181818181817,3,0.2727272727272727,R,S4,A0605,Ba,,153
4553,4_F,TTATCGTAACGGAATTAC,4,18,40.9378994464451,3.898408679311899,33.33333333333333,2,0.0,Ba_2,F,4_R,TTGTTTGAAGTGCTGTATGTTT,22,49.231551444787954,4.395243319030953,31.818181818181817,3,0.2727272727272727,R,S6,A0706,Ba,,0
4554,4_F,TTATCGTAACGGAATTAC,4,18,40.9378994464451,3.898408679311899,33.33333333333333,2,0.0,Ba_2,F,4_R,TTGTTTGAAGTGCTGTATGTTT,22,49.231551444787954,4.395243319030953,31.818181818181817,3,0.2727272727272727,R,S5,A0615,Ba,,0
4555,4_F,TTATCGTAACGGAATTAC,4,18,40.9378994464451,3.898408679311899,33.33333333333333,2,0.0,Ba_2,F,4_R,TTGTTTGAAGTGCTGTATGTTT,22,49.231551444787954,4.395243319030953,31.818181818181817,3,0.2727272727272727,R,S2,A0330,Ba,,0
4876,4_F,AATTGAACGTCCTCTAT,4,17,40.814335108306686,5.487846631279197,35.29411764705883,2,0.0,Ba_4,F,4_R,GCAGATGACTTTGTTATAGTTTG,23,48.36246156739713,2.060279827811243,34.78260869565217,3,0.2608695652173913,R,S4,A0605,Ba,,153
4877,4_F,AATTGAACGTCCTCTAT,4,17,40.814335108306686,5.487846631279197,35.29411764705883,2,0.0,Ba_4,F,4_R,GCAGATGACTTTGTTATAGTTTG,23,48.36246156739713,2.060279827811243,34.78260869565217,3,0.2608695652173913,R,S6,A0706,Ba,,0
4878,4_F,AATTGAACGTCCTCTAT,4,17,40.814335108306686,5.487846631279197,35.29411764705883,2,0.0,Ba_4,F,4_R,GCAGATGACTTTGTTATAGTTTG,23,48.36246156739713,2.060279827811243,34.78260869565217,3,0.2608695652173913,R,S5,A0615,Ba,,0
4879,4_F,AATTGAACGTCCTCTAT,4,17,40.814335108306686,5.487846631279197,35.29411764705883,2,0.0,Ba_4,F,4_R,GCAGATGACTTTGTTATAGTTTG,23,48.36246156739713,2.060279827811243,34.78260869565217,3,0.2608695652173913,R,S2,A0330,Ba,,0
4941,4_F,AATTGAACGTCCTCTAT,4,17,40.814335108306686,5.487846631279197,35.29411764705883,2,0.0,Ba_4,F,4_R,GCAGATGACTTTGTTATAGTTTG,23,48.36246156739713,2.060279827811243,34.78260869565217,3,0.2608695652173913,R,S144,BA-BaBTSeqBa007P2--xx-xxx-xxxx-021-SF,Ba,,869
4779,4_F,TTATCGTAACGGAATTAC,4,18,40.9378994464451,3.898408679311899,33.33333333333333,2,0.0,Ba_3,F,4_R,TTGTTTGAAGTGCTGTATGTTT,22,49.231551444787954,4.395243319030953,31.818181818181817,3,0.2727272727272727,R,S144,BA-BaBTSeqBa007P2--xx-xxx-xxxx-021-SF,Ba,,869
4390,4_F,TTATCGTAACGGAATTAC,4,18,40.9378994464451,3.898408679311899,33.33333333333333,2,0.0,Ba_1,F,4_R,TTGTTTGAAGTGCTGTATGTTT,22,49.231551444787954,4.395243319030953,31.818181818181817,3,0.2727272727272727,R,S4,A0605,Ba,,153
4391,4_F,TTATCGTAACGGAATTAC,4,18,40.9378994464451,3.898408679311899,33.33333333333333,2,0.0,Ba_1,F,4_R,TTGTTTGAAGTGCTGTATGTTT,22,49.231551444787954,4.395243319030953,31.818181818181817,3,0.2727272727272727,R,S6,A0706,Ba,,0
6499,4_F,GCGGCTGCGGCTATTAAGG,4,19,55.96505955318133,3.967829332696944,63.157894736842096,2,0.0,Yp_2,F,4_R,CCTGTAATTCACCACGACTG,20,50.5103598267205,1.486870393763887,50.0,2,0.0,R,S2,A0330,Ba,,0
6498,4_F,GCGGCTGCGGCTATTAAGG,4,19,55.96505955318133,3.967829332696944,63.157894736842096,2,0.0,Yp_2,F,4_R,CCTGTAATTCACCACGACTG,20,50.5103598267205,1.486870393763887,50.0,2,0.0,R,S5,A0615,Ba,,0
6497,4_F,GCGGCTGCGGCTATTAAGG,4,19,55.96505955318133,3.967829332696944,63.157894736842096,2,0.0,Yp_2,F,4_R,CCTGTAATTCACCACGACTG,20,50.5103598267205,1.486870393763887,50.0,2,0.0,R,S6,A0706,Ba,,0
6496,4_F,GCGGCTGCGGCTATTAAGG,4,19,55.96505955318133,3.967829332696944,63.157894736842096,2,0.0,Yp_2,F,4_R,CCTGTAATTCACCACGACTG,20,50.5103598267205,1.486870393763887,50.0,2,0.0,R,S4,A0605,Ba,,153
6561,4_F,GCGGCTGCGGCTATTAAGG,4,19,55.96505955318133,3.967829332696944,63.157894736842096,2,0.0,Yp_2,F,4_R,CCTGTAATTCACCACGACTG,20,50.5103598267205,1.486870393763887,50.0,2,0.0,R,S144,BA-BaBTSeqBa007P2--xx-xxx-xxxx-021-SF,Ba,,869
7887,5_F,GTGCTGAACTACCACCAAC,5,19,50.512543015886706,0.4553551720728137,52.631578947368425,2,0.0,Ft_2_V2,F,5_R,TGAGCACCATGTTGAGCTGCT,21,56.67762990210953,6.620442058295622,52.38095238095239,2,0.0,R,S144,BA-BaBTSeqBa007P2--xx-xxx-xxxx-021-SF,Ba,,541
8033,5_F,GTGCTGAACTACCACCAAC,5,19,50.512543015886706,0.2397671764766969,52.631578947368425,2,0.0,Ft_2,F,5_R,TGAGCACCATGTTGAGCTGCT,21,56.67762990210953,6.404854062699506,52.38095238095239,2,0.0,R,S144,BA-BaBTSeqBa007P2--xx-xxx-xxxx-021-SF,Ba,,541
7975,5_F,GTGCTGAACTACCACCAAC,5,19,50.512543015886706,0.2397671764766969,52.631578947368425,2,0.0,Ft_2,F,5_R,TGAGCACCATGTTGAGCTGCT,21,56.67762990210953,6.404854062699506,52.38095238095239,2,0.0,R,S5,A0615,Ba,,8
7974,5_F,GTGCTGAACTACCACCAAC,5,19,50.512543015886706,0.2397671764766969,52.631578947368425,2,0.0,Ft_2,F,5_R,TGAGCACCATGTTGAGCTGCT,21,56.67762990210953,6.404854062699506,52.38095238095239,2,0.0,R,S4,A0605,Ba,,2895
7973,5_F,GTGCTGAACTACCACCAAC,5,19,50.512543015886706,0.2397671764766969,52.631578947368425,2,0.0,Ft_2,F,5_R,TGAGCACCATGTTGAGCTGCT,21,56.67762990210953,6.404854062699506,52.38095238095239,2,0.0,R,S6,A0706,Ba,,12
7972,5_F,GTGCTGAACTACCACCAAC,5,19,50.512543015886706,0.2397671764766969,52.631578947368425,2,0.0,Ft_2,F,5_R,TGAGCACCATGTTGAGCTGCT,21,56.67762990210953,6.404854062699506,52.38095238095239,2,0.0,R,S2,A0330,Ba,,2
7683,5_F,GTGCTGAACTACCACCAACTGATC,5,24,55.75003315603647,6.893741555812447,50.0,2,0.0,Ft_1,F,5_R,TTACTGACATGAGTTGAGG,19,45.83123231048603,3.025059289737989,42.105263157894726,2,0.0,R,S5,A0615,Ba,,8
7682,5_F,GTGCTGAACTACCACCAACTGATC,5,24,55.75003315603647,6.893741555812447,50.0,2,0.0,Ft_1,F,5_R,TTACTGACATGAGTTGAGG,19,45.83123231048603,3.025059289737989,42.105263157894726,2,0.0,R,S4,A0605,Ba,,2895
7681,5_F,GTGCTGAACTACCACCAACTGATC,5,24,55.75003315603647,6.893741555812447,50.0,2,0.0,Ft_1,F,5_R,TTACTGACATGAGTTGAGG,19,45.83123231048603,3.025059289737989,42.105263157894726,2,0.0,R,S6,A0706,Ba,,12
7680,5_F,GTGCTGAACTACCACCAACTGATC,5,24,55.75003315603647,6.893741555812447,50.0,2,0.0,Ft_1,F,5_R,TTACTGACATGAGTTGAGG,19,45.83123231048603,3.025059289737989,42.105263157894726,2,0.0,R,S2,A0330,Ba,,2
7829,5_F,GTGCTGAACTACCACCAAC,5,19,50.512543015886706,0.4553551720728137,52.631578947368425,2,0.0,Ft_2_V2,F,5_R,TGAGCACCATGTTGAGCTGCT,21,56.67762990210953,6.620442058295622,52.38095238095239,2,0.0,R,S5,A0615,Ba,,8
7828,5_F,GTGCTGAACTACCACCAAC,5,19,50.512543015886706,0.4553551720728137,52.631578947368425,2,0.0,Ft_2_V2,F,5_R,TGAGCACCATGTTGAGCTGCT,21,56.67762990210953,6.620442058295622,52.38095238095239,2,0.0,R,S4,A0605,Ba,,2895
7827,5_F,GTGCTGAACTACCACCAAC,5,19,50.512543015886706,0.4553551720728137,52.631578947368425,2,0.0,Ft_2_V2,F,5_R,TGAGCACCATGTTGAGCTGCT,21,56.67762990210953,6.620442058295622,52.38095238095239,2,0.0,R,S6,A0706,Ba,,12
7826,5_F,GTGCTGAACTACCACCAAC,5,19,50.512543015886706,0.4553551720728137,52.631578947368425,2,0.0,Ft_2_V2,F,5_R,TGAGCACCATGTTGAGCTGCT,21,56.67762990210953,6.620442058295622,52.38095238095239,2,0.0,R,S2,A0330,Ba,,2
7741,5_F,GTGCTGAACTACCACCAACTGATC,5,24,55.75003315603647,6.893741555812447,50.0,2,0.0,Ft_1,F,5_R,TTACTGACATGAGTTGAGG,19,45.83123231048603,3.025059289737989,42.105263157894726,2,0.0,R,S144,BA-BaBTSeqBa007P2--xx-xxx-xxxx-021-SF,Ba,,541
8410,5_F,CACTTGATAGCACCGTCAGACT,5,22,54.265868095018114,2.268637874533717,50.0,2,0.0,Yp_2,F,5_R,GGCGTAACAGCTTCAGGTT,19,52.363528785976655,0.366298565492265,52.631578947368425,2,0.0,R,S2,A0330,Ba,,2
8413,5_F,CACTTGATAGCACCGTCAGACT,5,22,54.265868095018114,2.268637874533717,50.0,2,0.0,Yp_2,F,5_R,GGCGTAACAGCTTCAGGTT,19,52.363528785976655,0.366298565492265,52.631578947368425,2,0.0,R,S5,A0615,Ba,,8
8412,5_F,CACTTGATAGCACCGTCAGACT,5,22,54.265868095018114,2.268637874533717,50.0,2,0.0,Yp_2,F,5_R,GGCGTAACAGCTTCAGGTT,19,52.363528785976655,0.366298565492265,52.631578947368425,2,0.0,R,S4,A0605,Ba,,2895
8411,5_F,CACTTGATAGCACCGTCAGACT,5,22,54.265868095018114,2.268637874533717,50.0,2,0.0,Yp_2,F,5_R,GGCGTAACAGCTTCAGGTT,19,52.363528785976655,0.366298565492265,52.631578947368425,2,0.0,R,S6,A0706,Ba,,12
8325,5_F,GATAGCACCGTCAGACTCATTC,5,22,52.88187624928246,1.456986496639786,50.0,2,0.0,Yp_1,F,5_R,CTATGATGGTCAGGTTGCATG,21,50.980573866175746,0.44431588646693854,47.61904761904761,2,0.0,R,S144,BA-BaBTSeqBa007P2--xx-xxx-xxxx-021-SF,Ba,,541
8471,5_F,CACTTGATAGCACCGTCAGACT,5,22,54.265868095018114,2.268637874533717,50.0,2,0.0,Yp_2,F,5_R,GGCGTAACAGCTTCAGGTT,19,52.363528785976655,0.366298565492265,52.631578947368425,2,0.0,R,S144,BA-BaBTSeqBa007P2--xx-xxx-xxxx-021-SF,Ba,,541
8179,5_F,GATAGCACCGTCAGACTCATTC,5,22,52.88187624928246,1.7156645945983584,50.0,2,0.0,Yp_1_V2,F,5_R,CTATGATGGTCAGGTTGCATG,21,50.980573866175746,0.18563778850836601,47.61904761904761,2,0.0,R,S144,BA-BaBTSeqBa007P2--xx-xxx-xxxx-021-SF,Ba,,541
8121,5_F,GATAGCACCGTCAGACTCATTC,5,22,52.88187624928246,1.7156645945983584,50.0,2,0.0,Yp_1_V2,F,5_R,CTATGATGGTCAGGTTGCATG,21,50.980573866175746,0.18563778850836601,47.61904761904761,2,0.0,R,S5,A0615,Ba,,8
8120,5_F,GATAGCACCGTCAGACTCATTC,5,22,52.88187624928246,1.7156645945983584,50.0,2,0.0,Yp_1_V2,F,5_R,CTATGATGGTCAGGTTGCATG,21,50.980573866175746,0.18563778850836601,47.61904761904761,2,0.0,R,S4,A0605,Ba,,2895
8119,5_F,GATAGCACCGTCAGACTCATTC,5,22,52.88187624928246,1.7156645945983584,50.0,2,0.0,Yp_1_V2,F,5_R,CTATGATGGTCAGGTTGCATG,21,50.980573866175746,0.18563778850836601,47.61904761904761,2,0.0,R,S6,A0706,Ba,,12
8118,5_F,GATAGCACCGTCAGACTCATTC,5,22,52.88187624928246,1.7156645945983584,50.0,2,0.0,Yp_1_V2,F,5_R,CTATGATGGTCAGGTTGCATG,21,50.980573866175746,0.18563778850836601,47.61904761904761,2,0.0,R,S2,A0330,Ba,,2
8267,5_F,GATAGCACCGTCAGACTCATTC,5,22,52.88187624928246,1.456986496639786,50.0,2,0.0,Yp_1,F,5_R,CTATGATGGTCAGGTTGCATG,21,50.980573866175746,0.44431588646693854,47.61904761904761,2,0.0,R,S5,A0615,Ba,,8
8266,5_F,GATAGCACCGTCAGACTCATTC,5,22,52.88187624928246,1.456986496639786,50.0,2,0.0,Yp_1,F,5_R,CTATGATGGTCAGGTTGCATG,21,50.980573866175746,0.44431588646693854,47.61904761904761,2,0.0,R,S4,A0605,Ba,,2895
8265,5_F,GATAGCACCGTCAGACTCATTC,5,22,52.88187624928246,1.456986496639786,50.0,2,0.0,Yp_1,F,5_R,CTATGATGGTCAGGTTGCATG,21,50.980573866175746,0.44431588646693854,47.61904761904761,2,0.0,R,S6,A0706,Ba,,12