,Primer_Name_L,Seq_L,Amplicon,Primer_Length_L,Tm_L,Delta Tm_L,GC_Content_L,Length_Longest_Homopolymer_L,Percent_Homopolymer_L,exp,flank_L,Primer_Name_R,Seq_R,Primer_Length_R,Tm_R,Delta Tm_R,GC_Content_R,Length_Longest_Homopolymer_R,Percent_Homopolymer_R,flank_R,sample_id,sample_name,species,strain,n_reads
15369,15_F,TAAGAGATTGTGAAGGCTC,15,19,45.89283613972805,0.40934559985784347,42.105263157894726,2,0.0,Ba_5_V3,F,15_R,TGTTAGAACGCAACCTTTA,19,46.39477470348402,0.09259296389812732,36.84210526315789,3,0.15789473684210525,R,S144,BA-BaBTSeqBa007P2--xx-xxx-xxxx-021-SF,Ba,,1529
15304,15_F,TAAGAGATTGTGAAGGCTC,15,19,45.89283613972805,0.40934559985784347,42.105263157894726,2,0.0,Ba_5_V3,F,15_R,TGTTAGAACGCAACCTTTA,19,46.39477470348402,0.09259296389812732,36.84210526315789,3,0.15789473684210525,R,S6,A0706,Ba,,132
15305,15_F,TAAGAGATTGTGAAGGCTC,15,19,45.89283613972805,0.40934559985784347,42.105263157894726,2,0.0,Ba_5_V3,F,15_R,TGTTAGAACGCAACCTTTA,19,46.39477470348402,0.09259296389812732,36.84210526315789,3,0.15789473684210525,R,S4,A0605,Ba,,8235
15306,15_F,TAAGAGATTGTGAAGGCTC,15,19,45.89283613972805,0.40934559985784347,42.105263157894726,2,0.0,Ba_5_V3,F,15_R,TGTTAGAACGCAACCTTTA,19,46.39477470348402,0.09259296389812732,36.84210526315789,3,0.15789473684210525,R,S2,A0330,Ba,,89
15307,15_F,TAAGAGATTGTGAAGGCTC,15,19,45.89283613972805,0.40934559985784347,42.105263157894726,2,0.0,Ba_5_V3,F,15_R,TGTTAGAACGCAACCTTTA,19,46.39477470348402,0.09259296389812732,36.84210526315789,3,0.15789473684210525,R,S5,A0615,Ba,,226
15500,15_F,GTTATTTGCACGGTCATA,15,18,44.46456574012001,2.778497885395602,38.888888888888886,3,0.16666666666666666,Ba_6_V4,F,15_R,GTGCATGCTTCTTCTTAC,18,45.6443853991441,1.5986782263715256,44.444444444444436,2,0.0,R,S6,A0706,Ba,,132
15501,15_F,GTTATTTGCACGGTCATA,15,18,44.46456574012001,2.778497885395602,38.888888888888886,3,0.16666666666666666,Ba_6_V4,F,15_R,GTGCATGCTTCTTCTTAC,18,45.6443853991441,1.5986782263715256,44.444444444444436,2,0.0,R,S4,A0605,Ba,,8235
15502,15_F,GTTATTTGCACGGTCATA,15,18,44.46456574012001,2.778497885395602,38.888888888888886,3,0.16666666666666666,Ba_6_V4,F,15_R,GTGCATGCTTCTTCTTAC,18,45.6443853991441,1.5986782263715256,44.444444444444436,2,0.0,R,S2,A0330,Ba,,89
15503,15_F,GTTATTTGCACGGTCATA,15,18,44.46456574012001,2.778497885395602,38.888888888888886,3,0.16666666666666666,Ba_6_V4,F,15_R,GTGCATGCTTCTTCTTAC,18,45.6443853991441,1.5986782263715256,44.444444444444436,2,0.0,R,S5,A0615,Ba,,226
15565,15_F,GTTATTTGCACGGTCATA,15,18,44.46456574012001,2.778497885395602,38.888888888888886,3,0.16666666666666666,Ba_6_V4,F,15_R,GTGCATGCTTCTTCTTAC,18,45.6443853991441,1.5986782263715256,44.444444444444436,2,0.0,R,S144,BA-BaBTSeqBa007P2--xx-xxx-xxxx-021-SF,Ba,,1529
18245,16_F,GAAGAACAAAACCGTGTT,16,18,45.523869083781726,0.6875609580247328,38.888888888888886,4,0.2222222222222222,Ba_3,F,16_R,ATGATTTGTCCGTTATAAC,19,42.311440670138786,2.5248674556182205,31.578947368421048,3,0.15789473684210525,R,S5,A0615,Ba,,1
18243,16_F,GAAGAACAAAACCGTGTT,16,18,45.523869083781726,0.6875609580247328,38.888888888888886,4,0.2222222222222222,Ba_3,F,16_R,ATGATTTGTCCGTTATAAC,19,42.311440670138786,2.5248674556182205,31.578947368421048,3,0.15789473684210525,R,S2,A0330,Ba,,1
18242,16_F,GAAGAACAAAACCGTGTT,16,18,45.523869083781726,0.6875609580247328,38.888888888888886,4,0.2222222222222222,Ba_3,F,16_R,ATGATTTGTCCGTTATAAC,19,42.311440670138786,2.5248674556182205,31.578947368421048,3,0.15789473684210525,R,S4,A0605,Ba,,2406
18244,16_F,GAAGAACAAAACCGTGTT,16,18,45.523869083781726,0.6875609580247328,38.888888888888886,4,0.2222222222222222,Ba_3,F,16_R,ATGATTTGTCCGTTATAAC,19,42.311440670138786,2.5248674556182205,31.578947368421048,3,0.15789473684210525,R,S6,A0706,Ba,,3
18308,16_F,GAAGAACAAAACCGTGTT,16,18,45.523869083781726,0.6875609580247328,38.888888888888886,4,0.2222222222222222,Ba_3,F,16_R,ATGATTTGTCCGTTATAAC,19,42.311440670138786,2.5248674556182205,31.578947368421048,3,0.15789473684210525,R,S144,BA-BaBTSeqBa007P2--xx-xxx-xxxx-021-SF,Ba,,385
18503,16_F,GAAGAACAAAACCGTGTT,16,18,45.523869083781726,0.7783126558041573,38.888888888888886,4,0.2222222222222222,Ba_4,F,16_R,ATGATTTGTCCGTTATAAC,19,42.311440670138786,3.9907410694471115,31.578947368421048,3,0.15789473684210525,R,S144,BA-BaBTSeqBa007P2--xx-xxx-xxxx-021-SF,Ba,,385
18437,16_F,GAAGAACAAAACCGTGTT,16,18,45.523869083781726,0.7783126558041573,38.888888888888886,4,0.2222222222222222,Ba_4,F,16_R,ATGATTTGTCCGTTATAAC,19,42.311440670138786,3.9907410694471115,31.578947368421048,3,0.15789473684210525,R,S4,A0605,Ba,,2406
18438,16_F,GAAGAACAAAACCGTGTT,16,18,45.523869083781726,0.7783126558041573,38.888888888888886,4,0.2222222222222222,Ba_4,F,16_R,ATGATTTGTCCGTTATAAC,19,42.311440670138786,3.9907410694471115,31.578947368421048,3,0.15789473684210525,R,S2,A0330,Ba,,1
18439,16_F,GAAGAACAAAACCGTGTT,16,18,45.523869083781726,0.7783126558041573,38.888888888888886,4,0.2222222222222222,Ba_4,F,16_R,ATGATTTGTCCGTTATAAC,19,42.311440670138786,3.9907410694471115,31.578947368421048,3,0.15789473684210525,R,S6,A0706,Ba,,3
18440,16_F,GAAGAACAAAACCGTGTT,16,18,45.523869083781726,0.7783126558041573,38.888888888888886,4,0.2222222222222222,Ba_4,F,16_R,ATGATTTGTCCGTTATAAC,19,42.311440670138786,3.9907410694471115,31.578947368421048,3,0.15789473684210525,R,S5,A0615,Ba,,1
17852,16_F,GAAGAACAAAACCGTGTT,16,18,45.523869083781726,0.6875609580247328,38.888888888888886,4,0.2222222222222222,Ba_1,F,16_R,ATGATTTGTCCGTTATAAC,19,42.311440670138786,2.5248674556182205,31.578947368421048,3,0.15789473684210525,R,S4,A0605,Ba,,2406
17853,16_F,GAAGAACAAAACCGTGTT,16,18,45.523869083781726,0.6875609580247328,38.888888888888886,4,0.2222222222222222,Ba_1,F,16_R,ATGATTTGTCCGTTATAAC,19,42.311440670138786,2.5248674556182205,31.578947368421048,3,0.15789473684210525,R,S2,A0330,Ba,,1
17854,16_F,GAAGAACAAAACCGTGTT,16,18,45.523869083781726,0.6875609580247328,38.888888888888886,4,0.2222222222222222,Ba_1,F,16_R,ATGATTTGTCCGTTATAAC,19,42.311440670138786,2.5248674556182205,31.578947368421048,3,0.15789473684210525,R,S6,A0706,Ba,,3
17855,16_F,GAAGAACAAAACCGTGTT,16,18,45.523869083781726,0.6875609580247328,38.888888888888886,4,0.2222222222222222,Ba_1,F,16_R,ATGATTTGTCCGTTATAAC,19,42.311440670138786,2.5248674556182205,31.578947368421048,3,0.15789473684210525,R,S5,A0615,Ba,,1
17918,16_F,GAAGAACAAAACCGTGTT,16,18,45.523869083781726,0.6875609580247328,38.888888888888886,4,0.2222222222222222,Ba_1,F,16_R,ATGATTTGTCCGTTATAAC,19,42.311440670138786,2.5248674556182205,31.578947368421048,3,0.15789473684210525,R,S144,BA-BaBTSeqBa007P2--xx-xxx-xxxx-021-SF,Ba,,385
18047,16_F,GAAGAACAAAACCGTGTT,16,18,45.523869083781726,0.6875609580247328,38.888888888888886,4,0.2222222222222222,Ba_2,F,16_R,ATGATTTGTCCGTTATAAC,19,42.311440670138786,2.5248674556182205,31.578947368421048,3,0.15789473684210525,R,S4,A0605,Ba,,2406
18049,16_F,GAAGAACAAAACCGTGTT,16,18,45.523869083781726,0.6875609580247328,38.888888888888886,4,0.2222222222222222,Ba_2,F,16_R,ATGATTTGTCCGTTATAAC,19,42.311440670138786,2.5248674556182205,31.578947368421048,3,0.15789473684210525,R,S6,A0706,Ba,,3
18050,16_F,GAAGAACAAAACCGTGTT,16,18,45.523869083781726,0.6875609580247328,38.888888888888886,4,0.2222222222222222,Ba_2,F,16_R,ATGATTTGTCCGTTATAAC,19,42.311440670138786,2.5248674556182205,31.578947368421048,3,0.15789473684210525,R,S5,A0615,Ba,,1
18048,16_F,GAAGAACAAAACCGTGTT,16,18,45.523869083781726,0.6875609580247328,38.888888888888886,4,0.2222222222222222,Ba_2,F,16_R,ATGATTTGTCCGTTATAAC,19,42.311440670138786,2.5248674556182205,31.578947368421048,3,0.15789473684210525,R,S2,A0330,Ba,,1
18113,16_F,GAAGAACAAAACCGTGTT,16,18,45.523869083781726,0.6875609580247328,38.888888888888886,4,0.2222222222222222,Ba_2,F,16_R,ATGATTTGTCCGTTATAAC,19,42.311440670138786,2.5248674556182205,31.578947368421048,3,0.15789473684210525,R,S144,BA-BaBTSeqBa007P2--xx-xxx-xxxx-021-SF,Ba,,385
20453,16_F,GCGGCATTAGCTTGAAGA,16,18,49.8386486750789,0.218539168734992,50.0,2,0.0,Ft_2_V2,F,16_R,TAGTTGAGTTAATGGTAGTGATCGCG,26,55.06314198803153,5.00595414421764,42.307692307692314,2,0.0,R,S144,BA-BaBTSeqBa007P2--xx-xxx-xxxx-021-SF,Ba,,385
20390,16_F,GCGGCATTAGCTTGAAGA,16,18,49.8386486750789,0.218539168734992,50.0,2,0.0,Ft_2_V2,F,16_R,TAGTTGAGTTAATGGTAGTGATCGCG,26,55.06314198803153,5.00595414421764,42.307692307692314,2,0.0,R,S5,A0615,Ba,,1
20389,16_F,GCGGCATTAGCTTGAAGA,16,18,49.8386486750789,0.218539168734992,50.0,2,0.0,Ft_2_V2,F,16_R,TAGTTGAGTTAATGGTAGTGATCGCG,26,55.06314198803153,5.00595414421764,42.307692307692314,2,0.0,R,S6,A0706,Ba,,3
20387,16_F,GCGGCATTAGCTTGAAGA,16,18,49.8386486750789,0.218539168734992,50.0,2,0.0,Ft_2_V2,F,16_R,TAGTTGAGTTAATGGTAGTGATCGCG,26,55.06314198803153,5.00595414421764,42.307692307692314,2,0.0,R,S4,A0605,Ba,,2406
20388,16_F,GCGGCATTAGCTTGAAGA,16,18,49.8386486750789,0.218539168734992,50.0,2,0.0,Ft_2_V2,F,16_R,TAGTTGAGTTAATGGTAGTGATCGCG,26,55.06314198803153,5.00595414421764,42.307692307692314,2,0.0,R,S2,A0330,Ba,,1
20648,16_F,GCGGCATTAGCTTGAAGA,16,18,49.8386486750789,0.4341271643311089,50.0,2,0.0,Ft_2,F,16_R,TAGTTGAGTTAATGGTAGTGATCGCG,26,55.06314198803153,4.790366148621524,42.307692307692314,2,0.0,R,S144,BA-BaBTSeqBa007P2--xx-xxx-xxxx-021-SF,Ba,,385
20585,16_F,GCGGCATTAGCTTGAAGA,16,18,49.8386486750789,0.4341271643311089,50.0,2,0.0,Ft_2,F,16_R,TAGTTGAGTTAATGGTAGTGATCGCG,26,55.06314198803153,4.790366148621524,42.307692307692314,2,0.0,R,S5,A0615,Ba,,1
20584,16_F,GCGGCATTAGCTTGAAGA,16,18,49.8386486750789,0.4341271643311089,50.0,2,0.0,Ft_2,F,16_R,TAGTTGAGTTAATGGTAGTGATCGCG,26,55.06314198803153,4.790366148621524,42.307692307692314,2,0.0,R,S6,A0706,Ba,,3
20582,16_F,GCGGCATTAGCTTGAAGA,16,18,49.8386486750789,0.4341271643311089,50.0,2,0.0,Ft_2,F,16_R,TAGTTGAGTTAATGGTAGTGATCGCG,26,55.06314198803153,4.790366148621524,42.307692307692314,2,0.0,R,S4,A0605,Ba,,2406
20583,16_F,GCGGCATTAGCTTGAAGA,16,18,49.8386486750789,0.4341271643311089,50.0,2,0.0,Ft_2,F,16_R,TAGTTGAGTTAATGGTAGTGATCGCG,26,55.06314198803153,4.790366148621524,42.307692307692314,2,0.0,R,S2,A0330,Ba,,1
20000,16_F,GAAGAACAAAACCGTGTT,16,18,45.523869083781726,1.6912545769608798,38.888888888888886,4,0.2222222222222222,Ba_V45,F,16_R,ATGATTTGTCCGTTATAAC,19,42.311440670138786,4.9036829906038335,31.578947368421048,3,0.15789473684210525,R,S5,A0615,Ba,,1
19997,16_F,GAAGAACAAAACCGTGTT,16,18,45.523869083781726,1.6912545769608798,38.888888888888886,4,0.2222222222222222,Ba_V45,F,16_R,ATGATTTGTCCGTTATAAC,19,42.311440670138786,4.9036829906038335,31.578947368421048,3,0.15789473684210525,R,S4,A0605,Ba,,2406
19998,16_F,GAAGAACAAAACCGTGTT,16,18,45.523869083781726,1.6912545769608798,38.888888888888886,4,0.2222222222222222,Ba_V45,F,16_R,ATGATTTGTCCGTTATAAC,19,42.311440670138786,4.9036829906038335,31.578947368421048,3,0.15789473684210525,R,S2,A0330,Ba,,1
19999,16_F,GAAGAACAAAACCGTGTT,16,18,45.523869083781726,1.6912545769608798,38.888888888888886,4,0.2222222222222222,Ba_V45,F,16_R,ATGATTTGTCCGTTATAAC,19,42.311440670138786,4.9036829906038335,31.578947368421048,3,0.15789473684210525,R,S6,A0706,Ba,,3
20063,16_F,GAAGAACAAAACCGTGTT,16,18,45.523869083781726,1.6912545769608798,38.888888888888886,4,0.2222222222222222,Ba_V45,F,16_R,ATGATTTGTCCGTTATAAC,19,42.311440670138786,4.9036829906038335,31.578947368421048,3,0.15789473684210525,R,S144,BA-BaBTSeqBa007P2--xx-xxx-xxxx-021-SF,Ba,,385
20258,16_F,GCAGATAGATCAGAGCCTAACT,16,22,50.98461348675244,2.1283218865284184,45.45454545454545,2,0.0,Ft_1,F,16_R,TAGTTGAGTTAATGGTAGTGATCGC,25,52.84681897372036,3.9905273734963416,40.0,2,0.0,R,S144,BA-BaBTSeqBa007P2--xx-xxx-xxxx-021-SF,Ba,,385
20192,16_F,GCAGATAGATCAGAGCCTAACT,16,22,50.98461348675244,2.1283218865284184,45.45454545454545,2,0.0,Ft_1,F,16_R,TAGTTGAGTTAATGGTAGTGATCGC,25,52.84681897372036,3.9905273734963416,40.0,2,0.0,R,S4,A0605,Ba,,2406
20193,16_F,GCAGATAGATCAGAGCCTAACT,16,22,50.98461348675244,2.1283218865284184,45.45454545454545,2,0.0,Ft_1,F,16_R,TAGTTGAGTTAATGGTAGTGATCGC,25,52.84681897372036,3.9905273734963416,40.0,2,0.0,R,S2,A0330,Ba,,1
20194,16_F,GCAGATAGATCAGAGCCTAACT,16,22,50.98461348675244,2.1283218865284184,45.45454545454545,2,0.0,Ft_1,F,16_R,TAGTTGAGTTAATGGTAGTGATCGC,25,52.84681897372036,3.9905273734963416,40.0,2,0.0,R,S6,A0706,Ba,,3
20195,16_F,GCAGATAGATCAGAGCCTAACT,16,22,50.98461348675244,2.1283218865284184,45.45454545454545,2,0.0,Ft_1,F,16_R,TAGTTGAGTTAATGGTAGTGATCGC,25,52.84681897372036,3.9905273734963416,40.0,2,0.0,R,S5,A0615,Ba,,1
21170,16_F,AGTCATCAATCTTGTGTCA,16,19,45.63354755232415,6.36368266816023,36.84210526315789,2,0.0,Yp_2,F,16_R,CAGCGAGCAGTATTGGTGACAGAC,24,57.87865718726425,5.881426966779863,54.16666666666666,2,0.0,R,S5,A0615,Ba,,1
21169,16_F,AGTCATCAATCTTGTGTCA,16,19,45.63354755232415,6.36368266816023,36.84210526315789,2,0.0,Yp_2,F,16_R,CAGCGAGCAGTATTGGTGACAGAC,24,57.87865718726425,5.881426966779863,54.16666666666666,2,0.0,R,S6,A0706,Ba,,3
21168,16_F,AGTCATCAATCTTGTGTCA,16,19,45.63354755232415,6.36368266816023,36.84210526315789,2,0.0,Yp_2,F,16_R,CAGCGAGCAGTATTGGTGACAGAC,24,57.87865718726425,5.881426966779863,54.16666666666666,2,0.0,R,S2,A0330,Ba,,1
21167,16_F,AGTCATCAATCTTGTGTCA,16,19,45.63354755232415,6.36368266816023,36.84210526315789,2,0.0,Yp_2,F,16_R,CAGCGAGCAGTATTGGTGACAGAC,24,57.87865718726425,5.881426966779863,54.16666666666666,2,0.0,R,S4,A0605,Ba,,2406
21038,16_F,AGAAACAACACACCAACT,16,18,45.97893331127818,5.4459564413645,38.888888888888886,3,0.16666666666666666,Yp_1,F,16_R,CTGCTGGCGCGTCACATTGAA,21,58.622029124739534,7.197139372096842,57.14285714285714,2,0.0,R,S144,BA-BaBTSeqBa007P2--xx-xxx-xxxx-021-SF,Ba,,385
21233,16_F,AGTCATCAATCTTGTGTCA,16,19,45.63354755232415,6.36368266816023,36.84210526315789,2,0.0,Yp_2,F,16_R,CAGCGAGCAGTATTGGTGACAGAC,24,57.87865718726425,5.881426966779863,54.16666666666666,2,0.0,R,S144,BA-BaBTSeqBa007P2--xx-xxx-xxxx-021-SF,Ba,,385
20780,16_F,AGAAACAACACACCAACT,16,18,45.97893331127818,5.187278343405929,38.888888888888886,3,0.16666666666666666,Yp_1_V2,F,16_R,CTGCTGGCGCGTCACATTGAA,21,58.622029124739534,7.455817470055416,57.14285714285714,2,0.0,R,S5,A0615,Ba,,1
20779,16_F,AGAAACAACACACCAACT,16,18,45.97893331127818,5.187278343405929,38.888888888888886,3,0.16666666666666666,Yp_1_V2,F,16_R,CTGCTGGCGCGTCACATTGAA,21,58.622029124739534,7.455817470055416,57.14285714285714,2,0.0,R,S6,A0706,Ba,,3
20777,16_F,AGAAACAACACACCAACT,16,18,45.97893331127818,5.187278343405929,38.888888888888886,3,0.16666666666666666,Yp_1_V2,F,16_R,CTGCTGGCGCGTCACATTGAA,21,58.622029124739534,7.455817470055416,57.14285714285714,2,0.0,R,S4,A0605,Ba,,2406
20778,16_F,AGAAACAACACACCAACT,16,18,45.97893331127818,5.187278343405929,38.888888888888886,3,0.16666666666666666,Yp_1_V2,F,16_R,CTGCTGGCGCGTCACATTGAA,21,58.622029124739534,7.455817470055416,57.14285714285714,2,0.0,R,S2,A0330,Ba,,1
20843,16_F,AGAAACAACACACCAACT,16,18,45.97893331127818,5.187278343405929,38.888888888888886,3,0.16666666666666666,Yp_1_V2,F,16_R,CTGCTGGCGCGTCACATTGAA,21,58.622029124739534,7.455817470055416,57.14285714285714,2,0.0,R,S144,BA-BaBTSeqBa007P2--xx-xxx-xxxx-021-SF,Ba,,385
20972,16_F,AGAAACAACACACCAACT,16,18,45.97893331127818,5.4459564413645,38.888888888888886,3,0.16666666666666666,Yp_1,F,16_R,CTGCTGGCGCGTCACATTGAA,21,58.622029124739534,7.197139372096842,57.14285714285714,2,0.0,R,S4,A0605,Ba,,2406
20973,16_F,AGAAACAACACACCAACT,16,18,45.97893331127818,5.4459564413645,38.888888888888886,3,0.16666666666666666,Yp_1,F,16_R,CTGCTGGCGCGTCACATTGAA,21,58.622029124739534,7.197139372096842,57.14285714285714,2,0.0,R,S2,A0330,Ba,,1
20974,16_F,AGAAACAACACACCAACT,16,18,45.97893331127818,5.4459564413645,38.888888888888886,3,0.16666666666666666,Yp_1,F,16_R,CTGCTGGCGCGTCACATTGAA,21,58.622029124739534,7.197139372096842,57.14285714285714,2,0.0,R,S6,A0706,Ba,,3
20975,16_F,AGAAACAACACACCAACT,16,18,45.97893331127818,5.4459564413645,38.888888888888886,3,0.16666666666666666,Yp_1,F,16_R,CTGCTGGCGCGTCACATTGAA,21,58.622029124739534,7.197139372096842,57.14285714285714,2,0.0,R,S5,A0615,Ba,,1
19088,16_F,GAAGAACAAAACCGTGTT,16,18,45.523869083781726,1.7191945417338772,38.888888888888886,4,0.2222222222222222,Ba_6_V4,F,16_R,ATGATTTGTCCGTTATAAC,19,42.311440670138786,4.931622955376831,31.578947368421048,3,0.15789473684210525,R,S144,BA-BaBTSeqBa007P2--xx-xxx-xxxx-021-SF,Ba,,385
19022,16_F,GAAGAACAAAACCGTGTT,16,18,45.523869083781726,1.7191945417338772,38.888888888888886,4,0.2222222222222222,Ba_6_V4,F,16_R,ATGATTTGTCCGTTATAAC,19,42.311440670138786,4.931622955376831,31.578947368421048,3,0.15789473684210525,R,S4,A0605,Ba,,2406
19023,16_F,GAAGAACAAAACCGTGTT,16,18,45.523869083781726,1.7191945417338772,38.888888888888886,4,0.2222222222222222,Ba_6_V4,F,16_R,ATGATTTGTCCGTTATAAC,19,42.311440670138786,4.931622955376831,31.578947368421048,3,0.15789473684210525,R,S2,A0330,Ba,,1
19024,16_F,GAAGAACAAAACCGTGTT,16,18,45.523869083781726,1.7191945417338772,38.888888888888886,4,0.2222222222222222,Ba_6_V4,F,16_R,ATGATTTGTCCGTTATAAC,19,42.311440670138786,4.931622955376831,31.578947368421048,3,0.15789473684210525,R,S6,A0706,Ba,,3
19025,16_F,GAAGAACAAAACCGTGTT,16,18,45.523869083781726,1.7191945417338772,38.888888888888886,4,0.2222222222222222,Ba_6_V4,F,16_R,ATGATTTGTCCGTTATAAC,19,42.311440670138786,4.931622955376831,31.578947368421048,3,0.15789473684210525,R,S5,A0615,Ba,,1
19217,16_F,GACGTGAGAGCGGCAGTGAATG,16,22,58.2653277803978,5.900770471258467,59.09090909090909,2,0.0,Ba_HighSH,F,16_R,TTGTTGCACCTTCTGTGTT,19,49.695331996586894,2.6692253125524275,42.105263157894726,2,0.0,R,S4,A0605,Ba,,2406
19218,16_F,GACGTGAGAGCGGCAGTGAATG,16,22,58.2653277803978,5.900770471258467,59.09090909090909,2,0.0,Ba_HighSH,F,16_R,TTGTTGCACCTTCTGTGTT,19,49.695331996586894,2.6692253125524275,42.105263157894726,2,0.0,R,S2,A0330,Ba,,1
19219,16_F,GACGTGAGAGCGGCAGTGAATG,16,22,58.2653277803978,5.900770471258467,59.09090909090909,2,0.0,Ba_HighSH,F,16_R,TTGTTGCACCTTCTGTGTT,19,49.695331996586894,2.6692253125524275,42.105263157894726,2,0.0,R,S6,A0706,Ba,,3
19220,16_F,GACGTGAGAGCGGCAGTGAATG,16,22,58.2653277803978,5.900770471258467,59.09090909090909,2,0.0,Ba_HighSH,F,16_R,TTGTTGCACCTTCTGTGTT,19,49.695331996586894,2.6692253125524275,42.105263157894726,2,0.0,R,S5,A0615,Ba,,1
19283,16_F,GACGTGAGAGCGGCAGTGAATG,16,22,58.2653277803978,5.900770471258467,59.09090909090909,2,0.0,Ba_HighSH,F,16_R,TTGTTGCACCTTCTGTGTT,19,49.695331996586894,2.6692253125524275,42.105263157894726,2,0.0,R,S144,BA-BaBTSeqBa007P2--xx-xxx-xxxx-021-SF,Ba,,385
18698,16_F,GAAGAACAAAACCGTGTT,16,18,45.523869083781726,0.9486483633314792,38.888888888888886,4,0.2222222222222222,Ba_5_V35,F,16_R,ATGATTTGTCCGTTATAAC,19,42.311440670138786,4.161076776974433,31.578947368421048,3,0.15789473684210525,R,S144,BA-BaBTSeqBa007P2--xx-xxx-xxxx-021-SF,Ba,,385
18632,16_F,GAAGAACAAAACCGTGTT,16,18,45.523869083781726,0.9486483633314792,38.888888888888886,4,0.2222222222222222,Ba_5_V35,F,16_R,ATGATTTGTCCGTTATAAC,19,42.311440670138786,4.161076776974433,31.578947368421048,3,0.15789473684210525,R,S4,A0605,Ba,,2406
18633,16_F,GAAGAACAAAACCGTGTT,16,18,45.523869083781726,0.9486483633314792,38.888888888888886,4,0.2222222222222222,Ba_5_V35,F,16_R,ATGATTTGTCCGTTATAAC,19,42.311440670138786,4.161076776974433,31.578947368421048,3,0.15789473684210525,R,S2,A0330,Ba,,1
18634,16_F,GAAGAACAAAACCGTGTT,16,18,45.523869083781726,0.9486483633314792,38.888888888888886,4,0.2222222222222222,Ba_5_V35,F,16_R,ATGATTTGTCCGTTATAAC,19,42.311440670138786,4.161076776974433,31.578947368421048,3,0.15789473684210525,R,S6,A0706,Ba,,3
18635,16_F,GAAGAACAAAACCGTGTT,16,18,45.523869083781726,0.9486483633314792,38.888888888888886,4,0.2222222222222222,Ba_5_V35,F,16_R,ATGATTTGTCCGTTATAAC,19,42.311440670138786,4.161076776974433,31.578947368421048,3,0.15789473684210525,R,S5,A0615,Ba,,1
18893,16_F,GAAGAACAAAACCGTGTT,16,18,45.523869083781726,0.7783126558041573,38.888888888888886,4,0.2222222222222222,Ba_5_V3,F,16_R,ATGATTTGTCCGTTATAAC,19,42.311440670138786,3.9907410694471115,31.578947368421048,3,0.15789473684210525,R,S144,BA-BaBTSeqBa007P2--xx-xxx-xxxx-021-SF,Ba,,385
18827,16_F,GAAGAACAAAACCGTGTT,16,18,45.523869083781726,0.7783126558041573,38.888888888888886,4,0.2222222222222222,Ba_5_V3,F,16_R,ATGATTTGTCCGTTATAAC,19,42.311440670138786,3.9907410694471115,31.578947368421048,3,0.15789473684210525,R,S4,A0605,Ba,,2406