,Primer_Name_L,Seq_L,Amplicon,Primer_Length_L,Tm_L,Delta Tm_L,GC_Content_L,Length_Longest_Homopolymer_L,Percent_Homopolymer_L,exp,flank_L,Primer_Name_R,Seq_R,Primer_Length_R,Tm_R,Delta Tm_R,GC_Content_R,Length_Longest_Homopolymer_R,Percent_Homopolymer_R,flank_R,sample_id,sample_name,species,strain,n_reads
8264,5_F,GATAGCACCGTCAGACTCATTC,5,22,52.88187624928246,1.456986496639786,50.0,2,0.0,Yp_1,F,5_R,CTATGATGGTCAGGTTGCATG,21,50.980573866175746,0.44431588646693854,47.61904761904761,2,0.0,R,S2,A0330,Ba,,2
6953,5_F,GAAGGAGCAAGTAATGTT,5,18,43.75155164770985,1.0847564780471544,38.888888888888886,2,0.0,Ba_3,F,5_R,ATACAAATGAATCCTCCA,18,41.570958622604344,3.265349503152663,33.33333333333333,3,0.16666666666666666,R,S5,A0615,Ba,,8
6952,5_F,GAAGGAGCAAGTAATGTT,5,18,43.75155164770985,1.0847564780471544,38.888888888888886,2,0.0,Ba_3,F,5_R,ATACAAATGAATCCTCCA,18,41.570958622604344,3.265349503152663,33.33333333333333,3,0.16666666666666666,R,S4,A0605,Ba,,2895
7011,5_F,GAAGGAGCAAGTAATGTT,5,18,43.75155164770985,1.0847564780471544,38.888888888888886,2,0.0,Ba_3,F,5_R,ATACAAATGAATCCTCCA,18,41.570958622604344,3.265349503152663,33.33333333333333,3,0.16666666666666666,R,S144,BA-BaBTSeqBa007P2--xx-xxx-xxxx-021-SF,Ba,,541
6951,5_F,GAAGGAGCAAGTAATGTT,5,18,43.75155164770985,1.0847564780471544,38.888888888888886,2,0.0,Ba_3,F,5_R,ATACAAATGAATCCTCCA,18,41.570958622604344,3.265349503152663,33.33333333333333,3,0.16666666666666666,R,S6,A0706,Ba,,12
6950,5_F,GAAGGAGCAAGTAATGTT,5,18,43.75155164770985,1.0847564780471544,38.888888888888886,2,0.0,Ba_3,F,5_R,ATACAAATGAATCCTCCA,18,41.570958622604344,3.265349503152663,33.33333333333333,3,0.16666666666666666,R,S2,A0330,Ba,,2
7099,5_F,GAAGGAGCAAGTAATGTT,5,18,43.75155164770985,2.5506300918760445,38.888888888888886,2,0.0,Ba_4,F,5_R,ATACAAATGAATCCTCCA,18,41.570958622604344,4.731223116981552,33.33333333333333,3,0.16666666666666666,R,S5,A0615,Ba,,8
7098,5_F,GAAGGAGCAAGTAATGTT,5,18,43.75155164770985,2.5506300918760445,38.888888888888886,2,0.0,Ba_4,F,5_R,ATACAAATGAATCCTCCA,18,41.570958622604344,4.731223116981552,33.33333333333333,3,0.16666666666666666,R,S4,A0605,Ba,,2895
7097,5_F,GAAGGAGCAAGTAATGTT,5,18,43.75155164770985,2.5506300918760445,38.888888888888886,2,0.0,Ba_4,F,5_R,ATACAAATGAATCCTCCA,18,41.570958622604344,4.731223116981552,33.33333333333333,3,0.16666666666666666,R,S6,A0706,Ba,,12
7096,5_F,GAAGGAGCAAGTAATGTT,5,18,43.75155164770985,2.5506300918760445,38.888888888888886,2,0.0,Ba_4,F,5_R,ATACAAATGAATCCTCCA,18,41.570958622604344,4.731223116981552,33.33333333333333,3,0.16666666666666666,R,S2,A0330,Ba,,2
6719,5_F,GAAGGAGCAAGTAATGTT,5,18,43.75155164770985,1.0847564780471544,38.888888888888886,2,0.0,Ba_1,F,5_R,ATACAAATGAATCCTCCA,18,41.570958622604344,3.265349503152663,33.33333333333333,3,0.16666666666666666,R,S144,BA-BaBTSeqBa007P2--xx-xxx-xxxx-021-SF,Ba,,541
6661,5_F,GAAGGAGCAAGTAATGTT,5,18,43.75155164770985,1.0847564780471544,38.888888888888886,2,0.0,Ba_1,F,5_R,ATACAAATGAATCCTCCA,18,41.570958622604344,3.265349503152663,33.33333333333333,3,0.16666666666666666,R,S5,A0615,Ba,,8
6660,5_F,GAAGGAGCAAGTAATGTT,5,18,43.75155164770985,1.0847564780471544,38.888888888888886,2,0.0,Ba_1,F,5_R,ATACAAATGAATCCTCCA,18,41.570958622604344,3.265349503152663,33.33333333333333,3,0.16666666666666666,R,S4,A0605,Ba,,2895
6659,5_F,GAAGGAGCAAGTAATGTT,5,18,43.75155164770985,1.0847564780471544,38.888888888888886,2,0.0,Ba_1,F,5_R,ATACAAATGAATCCTCCA,18,41.570958622604344,3.265349503152663,33.33333333333333,3,0.16666666666666666,R,S6,A0706,Ba,,12
6658,5_F,GAAGGAGCAAGTAATGTT,5,18,43.75155164770985,1.0847564780471544,38.888888888888886,2,0.0,Ba_1,F,5_R,ATACAAATGAATCCTCCA,18,41.570958622604344,3.265349503152663,33.33333333333333,3,0.16666666666666666,R,S2,A0330,Ba,,2
6804,5_F,GAAGGAGCAAGTAATGTT,5,18,43.75155164770985,1.0847564780471544,38.888888888888886,2,0.0,Ba_2,F,5_R,ATACAAATGAATCCTCCA,18,41.570958622604344,3.265349503152663,33.33333333333333,3,0.16666666666666666,R,S2,A0330,Ba,,2
6806,5_F,GAAGGAGCAAGTAATGTT,5,18,43.75155164770985,1.0847564780471544,38.888888888888886,2,0.0,Ba_2,F,5_R,ATACAAATGAATCCTCCA,18,41.570958622604344,3.265349503152663,33.33333333333333,3,0.16666666666666666,R,S4,A0605,Ba,,2895
6805,5_F,GAAGGAGCAAGTAATGTT,5,18,43.75155164770985,1.0847564780471544,38.888888888888886,2,0.0,Ba_2,F,5_R,ATACAAATGAATCCTCCA,18,41.570958622604344,3.265349503152663,33.33333333333333,3,0.16666666666666666,R,S6,A0706,Ba,,12
6807,5_F,GAAGGAGCAAGTAATGTT,5,18,43.75155164770985,1.0847564780471544,38.888888888888886,2,0.0,Ba_2,F,5_R,ATACAAATGAATCCTCCA,18,41.570958622604344,3.265349503152663,33.33333333333333,3,0.16666666666666666,R,S5,A0615,Ba,,8
6865,5_F,GAAGGAGCAAGTAATGTT,5,18,43.75155164770985,1.0847564780471544,38.888888888888886,2,0.0,Ba_2,F,5_R,ATACAAATGAATCCTCCA,18,41.570958622604344,3.265349503152663,33.33333333333333,3,0.16666666666666666,R,S144,BA-BaBTSeqBa007P2--xx-xxx-xxxx-021-SF,Ba,,541
7449,5_F,GAGGCAGAAGGAGCAA,5,16,47.04352639594054,0.19953722957506412,56.25,2,0.0,Ba_6_V4,F,5_R,ATCGTCATCATACCGCC,17,48.0021492490157,0.7590856235000913,52.941176470588246,2,0.0,R,S144,BA-BaBTSeqBa007P2--xx-xxx-xxxx-021-SF,Ba,,541
7391,5_F,GAGGCAGAAGGAGCAA,5,16,47.04352639594054,0.19953722957506412,56.25,2,0.0,Ba_6_V4,F,5_R,ATCGTCATCATACCGCC,17,48.0021492490157,0.7590856235000913,52.941176470588246,2,0.0,R,S5,A0615,Ba,,8
7390,5_F,GAGGCAGAAGGAGCAA,5,16,47.04352639594054,0.19953722957506412,56.25,2,0.0,Ba_6_V4,F,5_R,ATCGTCATCATACCGCC,17,48.0021492490157,0.7590856235000913,52.941176470588246,2,0.0,R,S4,A0605,Ba,,2895
7389,5_F,GAGGCAGAAGGAGCAA,5,16,47.04352639594054,0.19953722957506412,56.25,2,0.0,Ba_6_V4,F,5_R,ATCGTCATCATACCGCC,17,48.0021492490157,0.7590856235000913,52.941176470588246,2,0.0,R,S6,A0706,Ba,,12
7388,5_F,GAGGCAGAAGGAGCAA,5,16,47.04352639594054,0.19953722957506412,56.25,2,0.0,Ba_6_V4,F,5_R,ATCGTCATCATACCGCC,17,48.0021492490157,0.7590856235000913,52.941176470588246,2,0.0,R,S2,A0330,Ba,,2
7595,5_F,GAGGCAGAAGGAGCAA,5,16,47.04352639594054,0.17159726480206672,56.25,2,0.0,Ba_V45,F,5_R,ATCGTCATCATACCGCC,17,48.0021492490157,0.7870255882730888,52.941176470588246,2,0.0,R,S144,BA-BaBTSeqBa007P2--xx-xxx-xxxx-021-SF,Ba,,541
7537,5_F,GAGGCAGAAGGAGCAA,5,16,47.04352639594054,0.17159726480206672,56.25,2,0.0,Ba_V45,F,5_R,ATCGTCATCATACCGCC,17,48.0021492490157,0.7870255882730888,52.941176470588246,2,0.0,R,S5,A0615,Ba,,8
7536,5_F,GAGGCAGAAGGAGCAA,5,16,47.04352639594054,0.17159726480206672,56.25,2,0.0,Ba_V45,F,5_R,ATCGTCATCATACCGCC,17,48.0021492490157,0.7870255882730888,52.941176470588246,2,0.0,R,S4,A0605,Ba,,2895
7535,5_F,GAGGCAGAAGGAGCAA,5,16,47.04352639594054,0.17159726480206672,56.25,2,0.0,Ba_V45,F,5_R,ATCGTCATCATACCGCC,17,48.0021492490157,0.7870255882730888,52.941176470588246,2,0.0,R,S6,A0706,Ba,,12
7534,5_F,GAGGCAGAAGGAGCAA,5,16,47.04352639594054,0.17159726480206672,56.25,2,0.0,Ba_V45,F,5_R,ATCGTCATCATACCGCC,17,48.0021492490157,0.7870255882730888,52.941176470588246,2,0.0,R,S2,A0330,Ba,,2
7245,5_F,GAAGGAGCAAGTAATGTT,5,18,43.75155164770985,2.5506300918760445,38.888888888888886,2,0.0,Ba_5_V3,F,5_R,ATACAAATGAATCCTCCA,18,41.570958622604344,4.731223116981552,33.33333333333333,3,0.16666666666666666,R,S5,A0615,Ba,,8
7244,5_F,GAAGGAGCAAGTAATGTT,5,18,43.75155164770985,2.5506300918760445,38.888888888888886,2,0.0,Ba_5_V3,F,5_R,ATACAAATGAATCCTCCA,18,41.570958622604344,4.731223116981552,33.33333333333333,3,0.16666666666666666,R,S4,A0605,Ba,,2895
7243,5_F,GAAGGAGCAAGTAATGTT,5,18,43.75155164770985,2.5506300918760445,38.888888888888886,2,0.0,Ba_5_V3,F,5_R,ATACAAATGAATCCTCCA,18,41.570958622604344,4.731223116981552,33.33333333333333,3,0.16666666666666666,R,S6,A0706,Ba,,12
7242,5_F,GAAGGAGCAAGTAATGTT,5,18,43.75155164770985,2.5506300918760445,38.888888888888886,2,0.0,Ba_5_V3,F,5_R,ATACAAATGAATCCTCCA,18,41.570958622604344,4.731223116981552,33.33333333333333,3,0.16666666666666666,R,S2,A0330,Ba,,2
7157,5_F,GAAGGAGCAAGTAATGTT,5,18,43.75155164770985,2.5506300918760445,38.888888888888886,2,0.0,Ba_4,F,5_R,ATACAAATGAATCCTCCA,18,41.570958622604344,4.731223116981552,33.33333333333333,3,0.16666666666666666,R,S144,BA-BaBTSeqBa007P2--xx-xxx-xxxx-021-SF,Ba,,541
7303,5_F,GAAGGAGCAAGTAATGTT,5,18,43.75155164770985,2.5506300918760445,38.888888888888886,2,0.0,Ba_5_V3,F,5_R,ATACAAATGAATCCTCCA,18,41.570958622604344,4.731223116981552,33.33333333333333,3,0.16666666666666666,R,S144,BA-BaBTSeqBa007P2--xx-xxx-xxxx-021-SF,Ba,,541
60567,6_F,TCGTGGTCAGATGGTCGCT,6,19,55.17692766314986,4.010716008465742,57.894736842105274,2,0.0,Yp_1_V2,F,6_R,ACGAACAATATGACACCTTAG,21,47.664542302387765,3.5016693522963536,38.095238095238095,2,0.0,R,S144,BA-BaBTSeqBa007P2--xx-xxx-xxxx-021-SF,Ba,,3
60646,6_F,TCGTGGTCAGATGGTCGCT,6,19,55.17692766314986,3.7520379105071697,57.894736842105274,2,0.0,Yp_1,F,6_R,ACGAACAATATGACACCTTAG,21,47.664542302387765,3.760347450254926,38.095238095238095,2,0.0,R,S6,A0706,Ba,,0
60647,6_F,TCGTGGTCAGATGGTCGCT,6,19,55.17692766314986,3.7520379105071697,57.894736842105274,2,0.0,Yp_1,F,6_R,ACGAACAATATGACACCTTAG,21,47.664542302387765,3.760347450254926,38.095238095238095,2,0.0,R,S5,A0615,Ba,,0
60648,6_F,TCGTGGTCAGATGGTCGCT,6,19,55.17692766314986,3.7520379105071697,57.894736842105274,2,0.0,Yp_1,F,6_R,ACGAACAATATGACACCTTAG,21,47.664542302387765,3.760347450254926,38.095238095238095,2,0.0,R,S2,A0330,Ba,,0
60649,6_F,TCGTGGTCAGATGGTCGCT,6,19,55.17692766314986,3.7520379105071697,57.894736842105274,2,0.0,Yp_1,F,6_R,ACGAACAATATGACACCTTAG,21,47.664542302387765,3.760347450254926,38.095238095238095,2,0.0,R,S4,A0605,Ba,,20
60489,6_F,TCGTGGTCAGATGGTCGCT,6,19,55.17692766314986,4.010716008465742,57.894736842105274,2,0.0,Yp_1_V2,F,6_R,ACGAACAATATGACACCTTAG,21,47.664542302387765,3.5016693522963536,38.095238095238095,2,0.0,R,S6,A0706,Ba,,0
60490,6_F,TCGTGGTCAGATGGTCGCT,6,19,55.17692766314986,4.010716008465742,57.894736842105274,2,0.0,Yp_1_V2,F,6_R,ACGAACAATATGACACCTTAG,21,47.664542302387765,3.5016693522963536,38.095238095238095,2,0.0,R,S5,A0615,Ba,,0
60491,6_F,TCGTGGTCAGATGGTCGCT,6,19,55.17692766314986,4.010716008465742,57.894736842105274,2,0.0,Yp_1_V2,F,6_R,ACGAACAATATGACACCTTAG,21,47.664542302387765,3.5016693522963536,38.095238095238095,2,0.0,R,S2,A0330,Ba,,0
60492,6_F,TCGTGGTCAGATGGTCGCT,6,19,55.17692766314986,4.010716008465742,57.894736842105274,2,0.0,Yp_1_V2,F,6_R,ACGAACAATATGACACCTTAG,21,47.664542302387765,3.5016693522963536,38.095238095238095,2,0.0,R,S4,A0605,Ba,,20
60881,6_F,TTGAGCGGTGTACGGATTT,6,19,51.345856215324936,0.6513740051594468,47.368421052631575,3,0.15789473684210525,Yp_2,F,6_R,ACTTACTGGATACGTTGAAC,20,47.023222601209966,4.974007619274424,40.0,2,0.0,R,S144,BA-BaBTSeqBa007P2--xx-xxx-xxxx-021-SF,Ba,,3
60724,6_F,TCGTGGTCAGATGGTCGCT,6,19,55.17692766314986,3.7520379105071697,57.894736842105274,2,0.0,Yp_1,F,6_R,ACGAACAATATGACACCTTAG,21,47.664542302387765,3.760347450254926,38.095238095238095,2,0.0,R,S144,BA-BaBTSeqBa007P2--xx-xxx-xxxx-021-SF,Ba,,3
60803,6_F,TTGAGCGGTGTACGGATTT,6,19,51.345856215324936,0.6513740051594468,47.368421052631575,3,0.15789473684210525,Yp_2,F,6_R,ACTTACTGGATACGTTGAAC,20,47.023222601209966,4.974007619274424,40.0,2,0.0,R,S6,A0706,Ba,,0
60804,6_F,TTGAGCGGTGTACGGATTT,6,19,51.345856215324936,0.6513740051594468,47.368421052631575,3,0.15789473684210525,Yp_2,F,6_R,ACTTACTGGATACGTTGAAC,20,47.023222601209966,4.974007619274424,40.0,2,0.0,R,S5,A0615,Ba,,0
60805,6_F,TTGAGCGGTGTACGGATTT,6,19,51.345856215324936,0.6513740051594468,47.368421052631575,3,0.15789473684210525,Yp_2,F,6_R,ACTTACTGGATACGTTGAAC,20,47.023222601209966,4.974007619274424,40.0,2,0.0,R,S2,A0330,Ba,,0
60806,6_F,TTGAGCGGTGTACGGATTT,6,19,51.345856215324936,0.6513740051594468,47.368421052631575,3,0.15789473684210525,Yp_2,F,6_R,ACTTACTGGATACGTTGAAC,20,47.023222601209966,4.974007619274424,40.0,2,0.0,R,S4,A0605,Ba,,20
59468,6_F,TACTGAAGATGAGAAAGTGGTAGA,6,24,50.609868110163745,4.137350663050533,37.5,3,0.125,Ba_5_V35,F,6_R,GCTCCTGTTCTCAAGTCCC,19,51.721492536715964,5.248975089602759,57.894736842105274,3,0.15789473684210525,R,S144,BA-BaBTSeqBa007P2--xx-xxx-xxxx-021-SF,Ba,,3
59548,6_F,TACTGAAGATGAGAAAGTGGTAGA,6,24,50.609868110163745,4.307686370577855,37.5,3,0.125,Ba_5_V3,F,6_R,GCTCCTGTTCTCAAGTCCC,19,51.721492536715964,5.4193107971300805,57.894736842105274,3,0.15789473684210525,R,S5,A0615,Ba,,0
59549,6_F,TACTGAAGATGAGAAAGTGGTAGA,6,24,50.609868110163745,4.307686370577855,37.5,3,0.125,Ba_5_V3,F,6_R,GCTCCTGTTCTCAAGTCCC,19,51.721492536715964,5.4193107971300805,57.894736842105274,3,0.15789473684210525,R,S2,A0330,Ba,,0
59550,6_F,TACTGAAGATGAGAAAGTGGTAGA,6,24,50.609868110163745,4.307686370577855,37.5,3,0.125,Ba_5_V3,F,6_R,GCTCCTGTTCTCAAGTCCC,19,51.721492536715964,5.4193107971300805,57.894736842105274,3,0.15789473684210525,R,S4,A0605,Ba,,20
59547,6_F,TACTGAAGATGAGAAAGTGGTAGA,6,24,50.609868110163745,4.307686370577855,37.5,3,0.125,Ba_5_V3,F,6_R,GCTCCTGTTCTCAAGTCCC,19,51.721492536715964,5.4193107971300805,57.894736842105274,3,0.15789473684210525,R,S6,A0706,Ba,,0
59311,6_F,TACTGAAGATGAGAAAGTGGTAGA,6,24,50.609868110163745,4.307686370577855,37.5,3,0.125,Ba_4,F,6_R,GCTCCTGTTCTCAAGTCCC,19,51.721492536715964,5.4193107971300805,57.894736842105274,3,0.15789473684210525,R,S144,BA-BaBTSeqBa007P2--xx-xxx-xxxx-021-SF,Ba,,3
59390,6_F,TACTGAAGATGAGAAAGTGGTAGA,6,24,50.609868110163745,4.137350663050533,37.5,3,0.125,Ba_5_V35,F,6_R,GCTCCTGTTCTCAAGTCCC,19,51.721492536715964,5.248975089602759,57.894736842105274,3,0.15789473684210525,R,S6,A0706,Ba,,0
59391,6_F,TACTGAAGATGAGAAAGTGGTAGA,6,24,50.609868110163745,4.137350663050533,37.5,3,0.125,Ba_5_V35,F,6_R,GCTCCTGTTCTCAAGTCCC,19,51.721492536715964,5.248975089602759,57.894736842105274,3,0.15789473684210525,R,S5,A0615,Ba,,0
59392,6_F,TACTGAAGATGAGAAAGTGGTAGA,6,24,50.609868110163745,4.137350663050533,37.5,3,0.125,Ba_5_V35,F,6_R,GCTCCTGTTCTCAAGTCCC,19,51.721492536715964,5.248975089602759,57.894736842105274,3,0.15789473684210525,R,S2,A0330,Ba,,0
59393,6_F,TACTGAAGATGAGAAAGTGGTAGA,6,24,50.609868110163745,4.137350663050533,37.5,3,0.125,Ba_5_V35,F,6_R,GCTCCTGTTCTCAAGTCCC,19,51.721492536715964,5.248975089602759,57.894736842105274,3,0.15789473684210525,R,S4,A0605,Ba,,20
59782,6_F,ACTGAAGATGAGAAAGTGGTA,6,21,48.0462179980945,0.8031543725788951,38.095238095238095,3,0.14285714285714285,Ba_6_V4,F,6_R,TAACGCTTCTCCGTAAT,17,44.05768133674019,3.185382288775422,41.17647058823529,2,0.0,R,S144,BA-BaBTSeqBa007P2--xx-xxx-xxxx-021-SF,Ba,,3
59625,6_F,TACTGAAGATGAGAAAGTGGTAGA,6,24,50.609868110163745,4.307686370577855,37.5,3,0.125,Ba_5_V3,F,6_R,GCTCCTGTTCTCAAGTCCC,19,51.721492536715964,5.4193107971300805,57.894736842105274,3,0.15789473684210525,R,S144,BA-BaBTSeqBa007P2--xx-xxx-xxxx-021-SF,Ba,,3
59704,6_F,ACTGAAGATGAGAAAGTGGTA,6,21,48.0462179980945,0.8031543725788951,38.095238095238095,3,0.14285714285714285,Ba_6_V4,F,6_R,TAACGCTTCTCCGTAAT,17,44.05768133674019,3.185382288775422,41.17647058823529,2,0.0,R,S6,A0706,Ba,,0
59705,6_F,ACTGAAGATGAGAAAGTGGTA,6,21,48.0462179980945,0.8031543725788951,38.095238095238095,3,0.14285714285714285,Ba_6_V4,F,6_R,TAACGCTTCTCCGTAAT,17,44.05768133674019,3.185382288775422,41.17647058823529,2,0.0,R,S5,A0615,Ba,,0
59706,6_F,ACTGAAGATGAGAAAGTGGTA,6,21,48.0462179980945,0.8031543725788951,38.095238095238095,3,0.14285714285714285,Ba_6_V4,F,6_R,TAACGCTTCTCCGTAAT,17,44.05768133674019,3.185382288775422,41.17647058823529,2,0.0,R,S2,A0330,Ba,,0
59707,6_F,ACTGAAGATGAGAAAGTGGTA,6,21,48.0462179980945,0.8031543725788951,38.095238095238095,3,0.14285714285714285,Ba_6_V4,F,6_R,TAACGCTTCTCCGTAAT,17,44.05768133674019,3.185382288775422,41.17647058823529,2,0.0,R,S4,A0605,Ba,,20
58919,6_F,ACTACCAGTAGAAGGTAAA,6,19,43.38525404580781,1.4510540799491878,36.84210526315789,3,0.15789473684210525,Ba_2,F,6_R,CTTAACGCTTCTCCGTAATT,20,47.83710656750691,3.0007984417499074,40.0,2,0.0,R,S6,A0706,Ba,,0
58920,6_F,ACTACCAGTAGAAGGTAAA,6,19,43.38525404580781,1.4510540799491878,36.84210526315789,3,0.15789473684210525,Ba_2,F,6_R,CTTAACGCTTCTCCGTAATT,20,47.83710656750691,3.0007984417499074,40.0,2,0.0,R,S5,A0615,Ba,,0
58921,6_F,ACTACCAGTAGAAGGTAAA,6,19,43.38525404580781,1.4510540799491878,36.84210526315789,3,0.15789473684210525,Ba_2,F,6_R,CTTAACGCTTCTCCGTAATT,20,47.83710656750691,3.0007984417499074,40.0,2,0.0,R,S2,A0330,Ba,,0
58922,6_F,ACTACCAGTAGAAGGTAAA,6,19,43.38525404580781,1.4510540799491878,36.84210526315789,3,0.15789473684210525,Ba_2,F,6_R,CTTAACGCTTCTCCGTAATT,20,47.83710656750691,3.0007984417499074,40.0,2,0.0,R,S4,A0605,Ba,,20
58997,6_F,ACTACCAGTAGAAGGTAAA,6,19,43.38525404580781,1.4510540799491878,36.84210526315789,3,0.15789473684210525,Ba_2,F,6_R,CTTAACGCTTCTCCGTAATT,20,47.83710656750691,3.0007984417499074,40.0,2,0.0,R,S144,BA-BaBTSeqBa007P2--xx-xxx-xxxx-021-SF,Ba,,3
58762,6_F,ACTACCAGTAGAAGGTAAA,6,19,43.38525404580781,1.4510540799491878,36.84210526315789,3,0.15789473684210525,Ba_1,F,6_R,CTTAACGCTTCTCCGTAATT,20,47.83710656750691,3.0007984417499074,40.0,2,0.0,R,S6,A0706,Ba,,0
58763,6_F,ACTACCAGTAGAAGGTAAA,6,19,43.38525404580781,1.4510540799491878,36.84210526315789,3,0.15789473684210525,Ba_1,F,6_R,CTTAACGCTTCTCCGTAATT,20,47.83710656750691,3.0007984417499074,40.0,2,0.0,R,S5,A0615,Ba,,0
58764,6_F,ACTACCAGTAGAAGGTAAA,6,19,43.38525404580781,1.4510540799491878,36.84210526315789,3,0.15789473684210525,Ba_1,F,6_R,CTTAACGCTTCTCCGTAATT,20,47.83710656750691,3.0007984417499074,40.0,2,0.0,R,S2,A0330,Ba,,0
58765,6_F,ACTACCAGTAGAAGGTAAA,6,19,43.38525404580781,1.4510540799491878,36.84210526315789,3,0.15789473684210525,Ba_1,F,6_R,CTTAACGCTTCTCCGTAATT,20,47.83710656750691,3.0007984417499074,40.0,2,0.0,R,S4,A0605,Ba,,20
58840,6_F,ACTACCAGTAGAAGGTAAA,6,19,43.38525404580781,1.4510540799491878,36.84210526315789,3,0.15789473684210525,Ba_1,F,6_R,CTTAACGCTTCTCCGTAATT,20,47.83710656750691,3.0007984417499074,40.0,2,0.0,R,S144,BA-BaBTSeqBa007P2--xx-xxx-xxxx-021-SF,Ba,,3
59233,6_F,TACTGAAGATGAGAAAGTGGTAGA,6,24,50.609868110163745,4.307686370577855,37.5,3,0.125,Ba_4,F,6_R,GCTCCTGTTCTCAAGTCCC,19,51.721492536715964,5.4193107971300805,57.894736842105274,3,0.15789473684210525,R,S6,A0706,Ba,,0
59234,6_F,TACTGAAGATGAGAAAGTGGTAGA,6,24,50.609868110163745,4.307686370577855,37.5,3,0.125,Ba_4,F,6_R,GCTCCTGTTCTCAAGTCCC,19,51.721492536715964,5.4193107971300805,57.894736842105274,3,0.15789473684210525,R,S5,A0615,Ba,,0
59235,6_F,TACTGAAGATGAGAAAGTGGTAGA,6,24,50.609868110163745,4.307686370577855,37.5,3,0.125,Ba_4,F,6_R,GCTCCTGTTCTCAAGTCCC,19,51.721492536715964,5.4193107971300805,57.894736842105274,3,0.15789473684210525,R,S2,A0330,Ba,,0
59236,6_F,TACTGAAGATGAGAAAGTGGTAGA,6,24,50.609868110163745,4.307686370577855,37.5,3,0.125,Ba_4,F,6_R,GCTCCTGTTCTCAAGTCCC,19,51.721492536715964,5.4193107971300805,57.894736842105274,3,0.15789473684210525,R,S4,A0605,Ba,,20
59076,6_F,ACTACCAGTAGAAGGTAAA,6,19,43.38525404580781,1.4510540799491878,36.84210526315789,3,0.15789473684210525,Ba_3,F,6_R,CTTAACGCTTCTCCGTAATT,20,47.83710656750691,3.0007984417499074,40.0,2,0.0,R,S6,A0706,Ba,,0
59077,6_F,ACTACCAGTAGAAGGTAAA,6,19,43.38525404580781,1.4510540799491878,36.84210526315789,3,0.15789473684210525,Ba_3,F,6_R,CTTAACGCTTCTCCGTAATT,20,47.83710656750691,3.0007984417499074,40.0,2,0.0,R,S5,A0615,Ba,,0
59078,6_F,ACTACCAGTAGAAGGTAAA,6,19,43.38525404580781,1.4510540799491878,36.84210526315789,3,0.15789473684210525,Ba_3,F,6_R,CTTAACGCTTCTCCGTAATT,20,47.83710656750691,3.0007984417499074,40.0,2,0.0,R,S2,A0330,Ba,,0
59079,6_F,ACTACCAGTAGAAGGTAAA,6,19,43.38525404580781,1.4510540799491878,36.84210526315789,3,0.15789473684210525,Ba_3,F,6_R,CTTAACGCTTCTCCGTAATT,20,47.83710656750691,3.0007984417499074,40.0,2,0.0,R,S4,A0605,Ba,,20
59154,6_F,ACTACCAGTAGAAGGTAAA,6,19,43.38525404580781,1.4510540799491878,36.84210526315789,3,0.15789473684210525,Ba_3,F,6_R,CTTAACGCTTCTCCGTAATT,20,47.83710656750691,3.0007984417499074,40.0,2,0.0,R,S144,BA-BaBTSeqBa007P2--xx-xxx-xxxx-021-SF,Ba,,3
60096,6_F,TATCCTATATCCTGTTGTAGAA,6,22,44.690423607336704,4.165867992887321,31.818181818181817,2,0.0,Ft_1,F,6_R,CATTATCGTGAGCTCCTT,18,45.73126196505467,3.1250296351693483,44.444444444444436,2,0.0,R,S144,BA-BaBTSeqBa007P2--xx-xxx-xxxx-021-SF,Ba,,3
59939,6_F,ACTGAAGATGAGAAAGTGGTA,6,21,48.0462179980945,0.8310943373518924,38.095238095238095,3,0.14285714285714285,Ba_V45,F,6_R,TAACGCTTCTCCGTAAT,17,44.05768133674019,3.1574423240024245,41.17647058823529,2,0.0,R,S144,BA-BaBTSeqBa007P2--xx-xxx-xxxx-021-SF,Ba,,3