,Primer_Name_L,Seq_L,Amplicon,Primer_Length_L,Tm_L,Delta Tm_L,GC_Content_L,Length_Longest_Homopolymer_L,Percent_Homopolymer_L,exp,flank_L,Primer_Name_R,Seq_R,Primer_Length_R,Tm_R,Delta Tm_R,GC_Content_R,Length_Longest_Homopolymer_R,Percent_Homopolymer_R,flank_R,sample_id,sample_name,species,strain,n_reads
34348,30_F,CAGTTGTGCCCATTGTCC,30,18,50.64428185723426,1.3529483632501282,55.555555555555564,3,0.16666666666666666,Yp_2,F,30_R,CGCCTGCTGACGCAATTCTT,20,56.220059418884325,4.222829198399928,55.00000000000001,2,0.0,R,S144,BA-BaBTSeqBa007P2--xx-xxx-xxxx-021-SF,Ba,,61
34185,30_F,ATGAATGGCCTCCGAGCA,30,18,52.83925077294447,1.4143610203017831,55.555555555555564,2,0.0,Yp_1,F,30_R,AATATTCTCACCAGTTACTCA,21,45.7397219043317,5.685167848310982,33.33333333333333,2,0.0,R,S2,A0330,Ba,,0
34186,30_F,ATGAATGGCCTCCGAGCA,30,18,52.83925077294447,1.4143610203017831,55.555555555555564,2,0.0,Yp_1,F,30_R,AATATTCTCACCAGTTACTCA,21,45.7397219043317,5.685167848310982,33.33333333333333,2,0.0,R,S4,A0605,Ba,,111
34187,30_F,ATGAATGGCCTCCGAGCA,30,18,52.83925077294447,1.4143610203017831,55.555555555555564,2,0.0,Yp_1,F,30_R,AATATTCTCACCAGTTACTCA,21,45.7397219043317,5.685167848310982,33.33333333333333,2,0.0,R,S5,A0615,Ba,,0
34188,30_F,ATGAATGGCCTCCGAGCA,30,18,52.83925077294447,1.4143610203017831,55.555555555555564,2,0.0,Yp_1,F,30_R,AATATTCTCACCAGTTACTCA,21,45.7397219043317,5.685167848310982,33.33333333333333,2,0.0,R,S6,A0706,Ba,,0
34243,30_F,ATGAATGGCCTCCGAGCA,30,18,52.83925077294447,1.4143610203017831,55.555555555555564,2,0.0,Yp_1,F,30_R,AATATTCTCACCAGTTACTCA,21,45.7397219043317,5.685167848310982,33.33333333333333,2,0.0,R,S144,BA-BaBTSeqBa007P2--xx-xxx-xxxx-021-SF,Ba,,61
35008,31_F,CCGGTGCTTCCTGTTAC,31,17,49.21409784484706,2.9119161052611697,58.82352941176471,2,0.0,Ba_5_V3,F,31_R,GTGGAAGGAAATGGTGG,17,46.41675215169432,0.11457041210842077,52.941176470588246,3,0.17647058823529413,R,S6,A0706,Ba,,378
35007,31_F,CCGGTGCTTCCTGTTAC,31,17,49.21409784484706,2.9119161052611697,58.82352941176471,2,0.0,Ba_5_V3,F,31_R,GTGGAAGGAAATGGTGG,17,46.41675215169432,0.11457041210842077,52.941176470588246,3,0.17647058823529413,R,S5,A0615,Ba,,683
35006,31_F,CCGGTGCTTCCTGTTAC,31,17,49.21409784484706,2.9119161052611697,58.82352941176471,2,0.0,Ba_5_V3,F,31_R,GTGGAAGGAAATGGTGG,17,46.41675215169432,0.11457041210842077,52.941176470588246,3,0.17647058823529413,R,S2,A0330,Ba,,523
35005,31_F,CCGGTGCTTCCTGTTAC,31,17,49.21409784484706,2.9119161052611697,58.82352941176471,2,0.0,Ba_5_V3,F,31_R,GTGGAAGGAAATGGTGG,17,46.41675215169432,0.11457041210842077,52.941176470588246,3,0.17647058823529413,R,S4,A0605,Ba,,10602
34952,31_F,CCGGTGCTTCCTGTTAC,31,17,49.21409784484706,2.7415803977338484,58.82352941176471,2,0.0,Ba_5_V35,F,31_R,GTGGAAGGAAATGGTGG,17,46.41675215169432,0.05576529541890096,52.941176470588246,3,0.17647058823529413,R,S144,BA-BaBTSeqBa007P2--xx-xxx-xxxx-021-SF,Ba,,33
35074,31_F,CCGGTGCTTCCTGTTAC,31,17,49.21409784484706,2.9119161052611697,58.82352941176471,2,0.0,Ba_5_V3,F,31_R,GTGGAAGGAAATGGTGG,17,46.41675215169432,0.11457041210842077,52.941176470588246,3,0.17647058823529413,R,S144,BA-BaBTSeqBa007P2--xx-xxx-xxxx-021-SF,Ba,,33
35684,31_F,GCGGTGTTGTAATCCTGATGC,31,21,54.225224664657276,2.227994444172886,52.38095238095239,2,0.0,Yp_2,F,31_R,TATTACTCGGCGCTTCAGG,19,51.367644361752355,0.6295858587320353,52.631578947368425,2,0.0,R,S144,BA-BaBTSeqBa007P2--xx-xxx-xxxx-021-SF,Ba,,33
35562,31_F,CCACGGATAGAACCGGATAC,31,20,51.5654746326091,0.14058487996641136,55.00000000000001,2,0.0,Yp_1,F,31_R,TTCAGGTTGGCAGATGTT,18,48.11711560436544,3.3077741482772467,44.444444444444436,2,0.0,R,S144,BA-BaBTSeqBa007P2--xx-xxx-xxxx-021-SF,Ba,,33
35615,31_F,GCGGTGTTGTAATCCTGATGC,31,21,54.225224664657276,2.227994444172886,52.38095238095239,2,0.0,Yp_2,F,31_R,TATTACTCGGCGCTTCAGG,19,51.367644361752355,0.6295858587320353,52.631578947368425,2,0.0,R,S4,A0605,Ba,,10602
35616,31_F,GCGGTGTTGTAATCCTGATGC,31,21,54.225224664657276,2.227994444172886,52.38095238095239,2,0.0,Yp_2,F,31_R,TATTACTCGGCGCTTCAGG,19,51.367644361752355,0.6295858587320353,52.631578947368425,2,0.0,R,S2,A0330,Ba,,523
35617,31_F,GCGGTGTTGTAATCCTGATGC,31,21,54.225224664657276,2.227994444172886,52.38095238095239,2,0.0,Yp_2,F,31_R,TATTACTCGGCGCTTCAGG,19,51.367644361752355,0.6295858587320353,52.631578947368425,2,0.0,R,S5,A0615,Ba,,683
35618,31_F,GCGGTGTTGTAATCCTGATGC,31,21,54.225224664657276,2.227994444172886,52.38095238095239,2,0.0,Yp_2,F,31_R,TATTACTCGGCGCTTCAGG,19,51.367644361752355,0.6295858587320353,52.631578947368425,2,0.0,R,S6,A0706,Ba,,378
35374,31_F,CCACGGATAGAACCGGATAC,31,20,51.5654746326091,0.3992629779249839,55.00000000000001,2,0.0,Yp_1_V2,F,31_R,TTCAGGTTGGCAGATGTT,18,48.11711560436544,3.0490960503186737,44.444444444444436,2,0.0,R,S6,A0706,Ba,,378
35373,31_F,CCACGGATAGAACCGGATAC,31,20,51.5654746326091,0.3992629779249839,55.00000000000001,2,0.0,Yp_1_V2,F,31_R,TTCAGGTTGGCAGATGTT,18,48.11711560436544,3.0490960503186737,44.444444444444436,2,0.0,R,S5,A0615,Ba,,683
35372,31_F,CCACGGATAGAACCGGATAC,31,20,51.5654746326091,0.3992629779249839,55.00000000000001,2,0.0,Yp_1_V2,F,31_R,TTCAGGTTGGCAGATGTT,18,48.11711560436544,3.0490960503186737,44.444444444444436,2,0.0,R,S2,A0330,Ba,,523
35371,31_F,CCACGGATAGAACCGGATAC,31,20,51.5654746326091,0.3992629779249839,55.00000000000001,2,0.0,Yp_1_V2,F,31_R,TTCAGGTTGGCAGATGTT,18,48.11711560436544,3.0490960503186737,44.444444444444436,2,0.0,R,S4,A0605,Ba,,10602
35493,31_F,CCACGGATAGAACCGGATAC,31,20,51.5654746326091,0.14058487996641136,55.00000000000001,2,0.0,Yp_1,F,31_R,TTCAGGTTGGCAGATGTT,18,48.11711560436544,3.3077741482772467,44.444444444444436,2,0.0,R,S4,A0605,Ba,,10602
35494,31_F,CCACGGATAGAACCGGATAC,31,20,51.5654746326091,0.14058487996641136,55.00000000000001,2,0.0,Yp_1,F,31_R,TTCAGGTTGGCAGATGTT,18,48.11711560436544,3.3077741482772467,44.444444444444436,2,0.0,R,S2,A0330,Ba,,523
35495,31_F,CCACGGATAGAACCGGATAC,31,20,51.5654746326091,0.14058487996641136,55.00000000000001,2,0.0,Yp_1,F,31_R,TTCAGGTTGGCAGATGTT,18,48.11711560436544,3.3077741482772467,44.444444444444436,2,0.0,R,S5,A0615,Ba,,683
35496,31_F,CCACGGATAGAACCGGATAC,31,20,51.5654746326091,0.14058487996641136,55.00000000000001,2,0.0,Yp_1,F,31_R,TTCAGGTTGGCAGATGTT,18,48.11711560436544,3.3077741482772467,44.444444444444436,2,0.0,R,S6,A0706,Ba,,378
35440,31_F,CCACGGATAGAACCGGATAC,31,20,51.5654746326091,0.3992629779249839,55.00000000000001,2,0.0,Yp_1_V2,F,31_R,TTCAGGTTGGCAGATGTT,18,48.11711560436544,3.0490960503186737,44.444444444444436,2,0.0,R,S144,BA-BaBTSeqBa007P2--xx-xxx-xxxx-021-SF,Ba,,33
35196,31_F,TTGCCCCTGTACTTCCT,31,17,48.32643435388371,1.0833707283681022,52.941176470588246,4,0.2352941176470588,Ba_6_V4,F,31_R,GAATGACAGGGATAACGG,18,46.516577563534156,0.7264860619814542,50.0,3,0.16666666666666666,R,S144,BA-BaBTSeqBa007P2--xx-xxx-xxxx-021-SF,Ba,,33
35130,31_F,TTGCCCCTGTACTTCCT,31,17,48.32643435388371,1.0833707283681022,52.941176470588246,4,0.2352941176470588,Ba_6_V4,F,31_R,GAATGACAGGGATAACGG,18,46.516577563534156,0.7264860619814542,50.0,3,0.16666666666666666,R,S6,A0706,Ba,,378
35129,31_F,TTGCCCCTGTACTTCCT,31,17,48.32643435388371,1.0833707283681022,52.941176470588246,4,0.2352941176470588,Ba_6_V4,F,31_R,GAATGACAGGGATAACGG,18,46.516577563534156,0.7264860619814542,50.0,3,0.16666666666666666,R,S5,A0615,Ba,,683
35128,31_F,TTGCCCCTGTACTTCCT,31,17,48.32643435388371,1.0833707283681022,52.941176470588246,4,0.2352941176470588,Ba_6_V4,F,31_R,GAATGACAGGGATAACGG,18,46.516577563534156,0.7264860619814542,50.0,3,0.16666666666666666,R,S2,A0330,Ba,,523
35127,31_F,TTGCCCCTGTACTTCCT,31,17,48.32643435388371,1.0833707283681022,52.941176470588246,4,0.2352941176470588,Ba_6_V4,F,31_R,GAATGACAGGGATAACGG,18,46.516577563534156,0.7264860619814542,50.0,3,0.16666666666666666,R,S4,A0605,Ba,,10602
35318,31_F,TTGCCCCTGTACTTCCT,31,17,48.32643435388371,1.1113106931410996,52.941176470588246,4,0.2352941176470588,Ba_V45,F,31_R,GAATGACAGGGATAACGG,18,46.516577563534156,0.6985460972084567,50.0,3,0.16666666666666666,R,S144,BA-BaBTSeqBa007P2--xx-xxx-xxxx-021-SF,Ba,,33
35249,31_F,TTGCCCCTGTACTTCCT,31,17,48.32643435388371,1.1113106931410996,52.941176470588246,4,0.2352941176470588,Ba_V45,F,31_R,GAATGACAGGGATAACGG,18,46.516577563534156,0.6985460972084567,50.0,3,0.16666666666666666,R,S4,A0605,Ba,,10602
35252,31_F,TTGCCCCTGTACTTCCT,31,17,48.32643435388371,1.1113106931410996,52.941176470588246,4,0.2352941176470588,Ba_V45,F,31_R,GAATGACAGGGATAACGG,18,46.516577563534156,0.6985460972084567,50.0,3,0.16666666666666666,R,S6,A0706,Ba,,378
35251,31_F,TTGCCCCTGTACTTCCT,31,17,48.32643435388371,1.1113106931410996,52.941176470588246,4,0.2352941176470588,Ba_V45,F,31_R,GAATGACAGGGATAACGG,18,46.516577563534156,0.6985460972084567,50.0,3,0.16666666666666666,R,S5,A0615,Ba,,683
35250,31_F,TTGCCCCTGTACTTCCT,31,17,48.32643435388371,1.1113106931410996,52.941176470588246,4,0.2352941176470588,Ba_V45,F,31_R,GAATGACAGGGATAACGG,18,46.516577563534156,0.6985460972084567,50.0,3,0.16666666666666666,R,S2,A0330,Ba,,523
34883,31_F,CCGGTGCTTCCTGTTAC,31,17,49.21409784484706,2.7415803977338484,58.82352941176471,2,0.0,Ba_5_V35,F,31_R,GTGGAAGGAAATGGTGG,17,46.41675215169432,0.05576529541890096,52.941176470588246,3,0.17647058823529413,R,S4,A0605,Ba,,10602
34884,31_F,CCGGTGCTTCCTGTTAC,31,17,49.21409784484706,2.7415803977338484,58.82352941176471,2,0.0,Ba_5_V35,F,31_R,GTGGAAGGAAATGGTGG,17,46.41675215169432,0.05576529541890096,52.941176470588246,3,0.17647058823529413,R,S2,A0330,Ba,,523
34885,31_F,CCGGTGCTTCCTGTTAC,31,17,49.21409784484706,2.7415803977338484,58.82352941176471,2,0.0,Ba_5_V35,F,31_R,GTGGAAGGAAATGGTGG,17,46.41675215169432,0.05576529541890096,52.941176470588246,3,0.17647058823529413,R,S5,A0615,Ba,,683
34886,31_F,CCGGTGCTTCCTGTTAC,31,17,49.21409784484706,2.7415803977338484,58.82352941176471,2,0.0,Ba_5_V35,F,31_R,GTGGAAGGAAATGGTGG,17,46.41675215169432,0.05576529541890096,52.941176470588246,3,0.17647058823529413,R,S6,A0706,Ba,,378
34708,31_F,CCCAGTACTTCCTGTTAC,31,18,45.52117768499846,0.6848695592414629,50.0,3,0.16666666666666666,Ba_3,F,31_R,TTCCAACTGGAATGACAG,18,45.974025976776545,1.137717851019545,44.444444444444436,2,0.0,R,S144,BA-BaBTSeqBa007P2--xx-xxx-xxxx-021-SF,Ba,,33
34764,31_F,CCGGTGCTTCCTGTTAC,31,17,49.21409784484706,2.9119161052611697,58.82352941176471,2,0.0,Ba_4,F,31_R,GTGGAAGGAAATGGTGG,17,46.41675215169432,0.11457041210842077,52.941176470588246,3,0.17647058823529413,R,S6,A0706,Ba,,378
34762,31_F,CCGGTGCTTCCTGTTAC,31,17,49.21409784484706,2.9119161052611697,58.82352941176471,2,0.0,Ba_4,F,31_R,GTGGAAGGAAATGGTGG,17,46.41675215169432,0.11457041210842077,52.941176470588246,3,0.17647058823529413,R,S2,A0330,Ba,,523
34761,31_F,CCGGTGCTTCCTGTTAC,31,17,49.21409784484706,2.9119161052611697,58.82352941176471,2,0.0,Ba_4,F,31_R,GTGGAAGGAAATGGTGG,17,46.41675215169432,0.11457041210842077,52.941176470588246,3,0.17647058823529413,R,S4,A0605,Ba,,10602
34763,31_F,CCGGTGCTTCCTGTTAC,31,17,49.21409784484706,2.9119161052611697,58.82352941176471,2,0.0,Ba_4,F,31_R,GTGGAAGGAAATGGTGG,17,46.41675215169432,0.11457041210842077,52.941176470588246,3,0.17647058823529413,R,S5,A0615,Ba,,683
34830,31_F,CCGGTGCTTCCTGTTAC,31,17,49.21409784484706,2.9119161052611697,58.82352941176471,2,0.0,Ba_4,F,31_R,GTGGAAGGAAATGGTGG,17,46.41675215169432,0.11457041210842077,52.941176470588246,3,0.17647058823529413,R,S144,BA-BaBTSeqBa007P2--xx-xxx-xxxx-021-SF,Ba,,33
34464,31_F,CCCAGTACTTCCTGTTAC,31,18,45.52117768499846,0.6848695592414629,50.0,3,0.16666666666666666,Ba_1,F,31_R,TTCCAACTGGAATGACAG,18,45.974025976776545,1.137717851019545,44.444444444444436,2,0.0,R,S144,BA-BaBTSeqBa007P2--xx-xxx-xxxx-021-SF,Ba,,33
34520,31_F,CCCAGTACTTCCTGTTAC,31,18,45.52117768499846,0.6848695592414629,50.0,3,0.16666666666666666,Ba_2,F,31_R,TTCCAACTGGAATGACAG,18,45.974025976776545,1.137717851019545,44.444444444444436,2,0.0,R,S6,A0706,Ba,,378
34519,31_F,CCCAGTACTTCCTGTTAC,31,18,45.52117768499846,0.6848695592414629,50.0,3,0.16666666666666666,Ba_2,F,31_R,TTCCAACTGGAATGACAG,18,45.974025976776545,1.137717851019545,44.444444444444436,2,0.0,R,S5,A0615,Ba,,683
34518,31_F,CCCAGTACTTCCTGTTAC,31,18,45.52117768499846,0.6848695592414629,50.0,3,0.16666666666666666,Ba_2,F,31_R,TTCCAACTGGAATGACAG,18,45.974025976776545,1.137717851019545,44.444444444444436,2,0.0,R,S2,A0330,Ba,,523
34517,31_F,CCCAGTACTTCCTGTTAC,31,18,45.52117768499846,0.6848695592414629,50.0,3,0.16666666666666666,Ba_2,F,31_R,TTCCAACTGGAATGACAG,18,45.974025976776545,1.137717851019545,44.444444444444436,2,0.0,R,S4,A0605,Ba,,10602
34398,31_F,CCCAGTACTTCCTGTTAC,31,18,45.52117768499846,0.6848695592414629,50.0,3,0.16666666666666666,Ba_1,F,31_R,TTCCAACTGGAATGACAG,18,45.974025976776545,1.137717851019545,44.444444444444436,2,0.0,R,S6,A0706,Ba,,378
34397,31_F,CCCAGTACTTCCTGTTAC,31,18,45.52117768499846,0.6848695592414629,50.0,3,0.16666666666666666,Ba_1,F,31_R,TTCCAACTGGAATGACAG,18,45.974025976776545,1.137717851019545,44.444444444444436,2,0.0,R,S5,A0615,Ba,,683
34396,31_F,CCCAGTACTTCCTGTTAC,31,18,45.52117768499846,0.6848695592414629,50.0,3,0.16666666666666666,Ba_1,F,31_R,TTCCAACTGGAATGACAG,18,45.974025976776545,1.137717851019545,44.444444444444436,2,0.0,R,S2,A0330,Ba,,523
34395,31_F,CCCAGTACTTCCTGTTAC,31,18,45.52117768499846,0.6848695592414629,50.0,3,0.16666666666666666,Ba_1,F,31_R,TTCCAACTGGAATGACAG,18,45.974025976776545,1.137717851019545,44.444444444444436,2,0.0,R,S4,A0605,Ba,,10602
34639,31_F,CCCAGTACTTCCTGTTAC,31,18,45.52117768499846,0.6848695592414629,50.0,3,0.16666666666666666,Ba_3,F,31_R,TTCCAACTGGAATGACAG,18,45.974025976776545,1.137717851019545,44.444444444444436,2,0.0,R,S4,A0605,Ba,,10602
34640,31_F,CCCAGTACTTCCTGTTAC,31,18,45.52117768499846,0.6848695592414629,50.0,3,0.16666666666666666,Ba_3,F,31_R,TTCCAACTGGAATGACAG,18,45.974025976776545,1.137717851019545,44.444444444444436,2,0.0,R,S2,A0330,Ba,,523
34641,31_F,CCCAGTACTTCCTGTTAC,31,18,45.52117768499846,0.6848695592414629,50.0,3,0.16666666666666666,Ba_3,F,31_R,TTCCAACTGGAATGACAG,18,45.974025976776545,1.137717851019545,44.444444444444436,2,0.0,R,S5,A0615,Ba,,683
34642,31_F,CCCAGTACTTCCTGTTAC,31,18,45.52117768499846,0.6848695592414629,50.0,3,0.16666666666666666,Ba_3,F,31_R,TTCCAACTGGAATGACAG,18,45.974025976776545,1.137717851019545,44.444444444444436,2,0.0,R,S6,A0706,Ba,,378
34586,31_F,CCCAGTACTTCCTGTTAC,31,18,45.52117768499846,0.6848695592414629,50.0,3,0.16666666666666666,Ba_2,F,31_R,TTCCAACTGGAATGACAG,18,45.974025976776545,1.137717851019545,44.444444444444436,2,0.0,R,S144,BA-BaBTSeqBa007P2--xx-xxx-xxxx-021-SF,Ba,,33
36315,32_F,ATAGTCAAATCCCCATACG,32,19,45.662947510644074,0.6392342289418167,42.105263157894726,4,0.3684210526315789,Ba_5_V3,F,32_R,CGAAGATGAATTAGCAGCTCT,21,50.12816701097887,3.82598527139298,42.857142857142854,2,0.0,R,S4,A0605,Ba,,1085
36314,32_F,ATAGTCAAATCCCCATACG,32,19,45.662947510644074,0.6392342289418167,42.105263157894726,4,0.3684210526315789,Ba_5_V3,F,32_R,CGAAGATGAATTAGCAGCTCT,21,50.12816701097887,3.82598527139298,42.857142857142854,2,0.0,R,S5,A0615,Ba,,0
36313,32_F,ATAGTCAAATCCCCATACG,32,19,45.662947510644074,0.6392342289418167,42.105263157894726,4,0.3684210526315789,Ba_5_V3,F,32_R,CGAAGATGAATTAGCAGCTCT,21,50.12816701097887,3.82598527139298,42.857142857142854,2,0.0,R,S6,A0706,Ba,,2
36312,32_F,ATAGTCAAATCCCCATACG,32,19,45.662947510644074,0.6392342289418167,42.105263157894726,4,0.3684210526315789,Ba_5_V3,F,32_R,CGAAGATGAATTAGCAGCTCT,21,50.12816701097887,3.82598527139298,42.857142857142854,2,0.0,R,S2,A0330,Ba,,0
36428,32_F,ATAGTCAAATCCCCATACG,32,19,45.662947510644074,1.5801161148715366,42.105263157894726,4,0.3684210526315789,Ba_6_V4,F,32_R,AGTGAAAGCGAAGATGAATTAGCA,24,53.163074409740325,5.920010784224707,37.5,3,0.125,R,S6,A0706,Ba,,2
36429,32_F,ATAGTCAAATCCCCATACG,32,19,45.662947510644074,1.5801161148715366,42.105263157894726,4,0.3684210526315789,Ba_6_V4,F,32_R,AGTGAAAGCGAAGATGAATTAGCA,24,53.163074409740325,5.920010784224707,37.5,3,0.125,R,S5,A0615,Ba,,0
36430,32_F,ATAGTCAAATCCCCATACG,32,19,45.662947510644074,1.5801161148715366,42.105263157894726,4,0.3684210526315789,Ba_6_V4,F,32_R,AGTGAAAGCGAAGATGAATTAGCA,24,53.163074409740325,5.920010784224707,37.5,3,0.125,R,S4,A0605,Ba,,1085
36427,32_F,ATAGTCAAATCCCCATACG,32,19,45.662947510644074,1.5801161148715366,42.105263157894726,4,0.3684210526315789,Ba_6_V4,F,32_R,AGTGAAAGCGAAGATGAATTAGCA,24,53.163074409740325,5.920010784224707,37.5,3,0.125,R,S2,A0330,Ba,,0
36264,32_F,AACTTGAATGACATCATC,32,18,41.51743339238061,4.955084054732602,33.33333333333333,2,0.0,Ba_5_V35,F,32_R,AAAAGTGAAAGCGAAGAT,18,44.00907419478693,2.4634432523262793,33.33333333333333,4,0.3888888888888889,R,S144,BA-BaBTSeqBa007P2--xx-xxx-xxxx-021-SF,Ba,,30
36379,32_F,ATAGTCAAATCCCCATACG,32,19,45.662947510644074,0.6392342289418167,42.105263157894726,4,0.3684210526315789,Ba_5_V3,F,32_R,CGAAGATGAATTAGCAGCTCT,21,50.12816701097887,3.82598527139298,42.857142857142854,2,0.0,R,S144,BA-BaBTSeqBa007P2--xx-xxx-xxxx-021-SF,Ba,,30
36149,32_F,ATAGTCAAATCCCCATACG,32,19,45.662947510644074,0.6392342289418167,42.105263157894726,4,0.3684210526315789,Ba_4,F,32_R,CGAAGATGAATTAGCAGCTCT,21,50.12816701097887,3.82598527139298,42.857142857142854,2,0.0,R,S144,BA-BaBTSeqBa007P2--xx-xxx-xxxx-021-SF,Ba,,30
36198,32_F,AACTTGAATGACATCATC,32,18,41.51743339238061,4.955084054732602,33.33333333333333,2,0.0,Ba_5_V35,F,32_R,AAAAGTGAAAGCGAAGAT,18,44.00907419478693,2.4634432523262793,33.33333333333333,4,0.3888888888888889,R,S6,A0706,Ba,,2
36197,32_F,AACTTGAATGACATCATC,32,18,41.51743339238061,4.955084054732602,33.33333333333333,2,0.0,Ba_5_V35,F,32_R,AAAAGTGAAAGCGAAGAT,18,44.00907419478693,2.4634432523262793,33.33333333333333,4,0.3888888888888889,R,S2,A0330,Ba,,0
36200,32_F,AACTTGAATGACATCATC,32,18,41.51743339238061,4.955084054732602,33.33333333333333,2,0.0,Ba_5_V35,F,32_R,AAAAGTGAAAGCGAAGAT,18,44.00907419478693,2.4634432523262793,33.33333333333333,4,0.3888888888888889,R,S4,A0605,Ba,,1085
36199,32_F,AACTTGAATGACATCATC,32,18,41.51743339238061,4.955084054732602,33.33333333333333,2,0.0,Ba_5_V35,F,32_R,AAAAGTGAAAGCGAAGAT,18,44.00907419478693,2.4634432523262793,33.33333333333333,4,0.3888888888888889,R,S5,A0615,Ba,,0
36839,32_F,AAACTATCATTGGCTATCC,32,19,43.64659826781832,7.778291484824365,36.84210526315789,3,0.15789473684210525,Yp_1,F,32_R,GACGCTAAGGCTAGGAGTT,19,50.51454719570671,0.9103425569359728,52.631578947368425,2,0.0,R,S144,BA-BaBTSeqBa007P2--xx-xxx-xxxx-021-SF,Ba,,30
36724,32_F,AAACTATCATTGGCTATCC,32,19,43.64659826781832,7.519613386865793,36.84210526315789,3,0.15789473684210525,Yp_1_V2,F,32_R,GACGCTAAGGCTAGGAGTT,19,50.51454719570671,0.6516644589774003,52.631578947368425,2,0.0,R,S144,BA-BaBTSeqBa007P2--xx-xxx-xxxx-021-SF,Ba,,30
36775,32_F,AAACTATCATTGGCTATCC,32,19,43.64659826781832,7.778291484824365,36.84210526315789,3,0.15789473684210525,Yp_1,F,32_R,GACGCTAAGGCTAGGAGTT,19,50.51454719570671,0.9103425569359728,52.631578947368425,2,0.0,R,S4,A0605,Ba,,1085
36774,32_F,AAACTATCATTGGCTATCC,32,19,43.64659826781832,7.778291484824365,36.84210526315789,3,0.15789473684210525,Yp_1,F,32_R,GACGCTAAGGCTAGGAGTT,19,50.51454719570671,0.9103425569359728,52.631578947368425,2,0.0,R,S5,A0615,Ba,,0
36773,32_F,AAACTATCATTGGCTATCC,32,19,43.64659826781832,7.778291484824365,36.84210526315789,3,0.15789473684210525,Yp_1,F,32_R,GACGCTAAGGCTAGGAGTT,19,50.51454719570671,0.9103425569359728,52.631578947368425,2,0.0,R,S6,A0706,Ba,,2
36772,32_F,AAACTATCATTGGCTATCC,32,19,43.64659826781832,7.778291484824365,36.84210526315789,3,0.15789473684210525,Yp_1,F,32_R,GACGCTAAGGCTAGGAGTT,19,50.51454719570671,0.9103425569359728,52.631578947368425,2,0.0,R,S2,A0330,Ba,,0
36887,32_F,CGCAAATTAAGATCAAGAGACGTGT,32,25,54.3437424154995,2.3465121950151016,40.0,3,0.12,Yp_2,F,32_R,TCGGTAATCGCGCCGTCATAAGT,23,58.61434275416417,6.61711253367978,52.17391304347826,2,0.0,R,S2,A0330,Ba,,0
36888,32_F,CGCAAATTAAGATCAAGAGACGTGT,32,25,54.3437424154995,2.3465121950151016,40.0,3,0.12,Yp_2,F,32_R,TCGGTAATCGCGCCGTCATAAGT,23,58.61434275416417,6.61711253367978,52.17391304347826,2,0.0,R,S6,A0706,Ba,,2
36889,32_F,CGCAAATTAAGATCAAGAGACGTGT,32,25,54.3437424154995,2.3465121950151016,40.0,3,0.12,Yp_2,F,32_R,TCGGTAATCGCGCCGTCATAAGT,23,58.61434275416417,6.61711253367978,52.17391304347826,2,0.0,R,S5,A0615,Ba,,0