,Primer_Name_L,Seq_L,Amplicon,Primer_Length_L,Tm_L,Delta Tm_L,GC_Content_L,Length_Longest_Homopolymer_L,Percent_Homopolymer_L,exp,flank_L,Primer_Name_R,Seq_R,Primer_Length_R,Tm_R,Delta Tm_R,GC_Content_R,Length_Longest_Homopolymer_R,Percent_Homopolymer_R,flank_R,sample_id,sample_name,species,strain,n_reads
26296,20_F,GTATGTGACGGGAGCCAA,20,18,50.94793338111992,3.7048697556043138,55.555555555555564,3,0.16666666666666666,Ba_6_V4,F,20_R,TCCGTTGAATAAGCAGTAT,19,45.529719935565204,1.7133436899504133,36.84210526315789,2,0.0,R,S4,A0605,Ba,,55
26295,20_F,GTATGTGACGGGAGCCAA,20,18,50.94793338111992,3.7048697556043138,55.555555555555564,3,0.16666666666666666,Ba_6_V4,F,20_R,TCCGTTGAATAAGCAGTAT,19,45.529719935565204,1.7133436899504133,36.84210526315789,2,0.0,R,S5,A0615,Ba,,0
26294,20_F,GTATGTGACGGGAGCCAA,20,18,50.94793338111992,3.7048697556043138,55.555555555555564,3,0.16666666666666666,Ba_6_V4,F,20_R,TCCGTTGAATAAGCAGTAT,19,45.529719935565204,1.7133436899504133,36.84210526315789,2,0.0,R,S6,A0706,Ba,,0
26705,20_F,ATAAGTATGTGACGGGAGCCA,20,21,52.67416695220601,1.1517208440621545,47.61904761904761,3,0.14285714285714285,Ba_HighSpec,F,20_R,GTTCCGTTGAATAAGCAGTA,20,47.700246320128095,3.8221997880157663,40.0,2,0.0,R,S2,A0330,Ba,,0
26704,20_F,ATAAGTATGTGACGGGAGCCA,20,21,52.67416695220601,1.1517208440621545,47.61904761904761,3,0.14285714285714285,Ba_HighSpec,F,20_R,GTTCCGTTGAATAAGCAGTA,20,47.700246320128095,3.8221997880157663,40.0,2,0.0,R,S4,A0605,Ba,,55
26703,20_F,ATAAGTATGTGACGGGAGCCA,20,21,52.67416695220601,1.1517208440621545,47.61904761904761,3,0.14285714285714285,Ba_HighSpec,F,20_R,GTTCCGTTGAATAAGCAGTA,20,47.700246320128095,3.8221997880157663,40.0,2,0.0,R,S5,A0615,Ba,,0
26702,20_F,ATAAGTATGTGACGGGAGCCA,20,21,52.67416695220601,1.1517208440621545,47.61904761904761,3,0.14285714285714285,Ba_HighSpec,F,20_R,GTTCCGTTGAATAAGCAGTA,20,47.700246320128095,3.8221997880157663,40.0,2,0.0,R,S6,A0706,Ba,,0
26499,20_F,ATAAGTATGTGACGGGAGCCA,20,21,52.67416695220601,0.30960964306667904,47.61904761904761,3,0.14285714285714285,Ba_HighSH,F,20_R,GTTCCGTTGAATAAGCAGTA,20,47.700246320128095,4.664310989011241,40.0,2,0.0,R,S5,A0615,Ba,,0
26498,20_F,ATAAGTATGTGACGGGAGCCA,20,21,52.67416695220601,0.30960964306667904,47.61904761904761,3,0.14285714285714285,Ba_HighSH,F,20_R,GTTCCGTTGAATAAGCAGTA,20,47.700246320128095,4.664310989011241,40.0,2,0.0,R,S6,A0706,Ba,,0
26500,20_F,ATAAGTATGTGACGGGAGCCA,20,21,52.67416695220601,0.30960964306667904,47.61904761904761,3,0.14285714285714285,Ba_HighSH,F,20_R,GTTCCGTTGAATAAGCAGTA,20,47.700246320128095,4.664310989011241,40.0,2,0.0,R,S4,A0605,Ba,,55
26501,20_F,ATAAGTATGTGACGGGAGCCA,20,21,52.67416695220601,0.30960964306667904,47.61904761904761,3,0.14285714285714285,Ba_HighSH,F,20_R,GTTCCGTTGAATAAGCAGTA,20,47.700246320128095,4.664310989011241,40.0,2,0.0,R,S2,A0330,Ba,,0
26573,20_F,ATAAGTATGTGACGGGAGCCA,20,21,52.67416695220601,0.30960964306667904,47.61904761904761,3,0.14285714285714285,Ba_HighSH,F,20_R,GTTCCGTTGAATAAGCAGTA,20,47.700246320128095,4.664310989011241,40.0,2,0.0,R,S144,BA-BaBTSeqBa007P2--xx-xxx-xxxx-021-SF,Ba,,382
28936,21_F,CTCCCGAATCTCCATTAC,21,18,45.83571755029225,0.9994094245352584,50.0,3,0.16666666666666666,Ba_2,F,21_R,GACGATATGACTATAGAAGAA,21,43.75113369039178,1.0851744353652182,33.33333333333333,2,0.0,R,S144,BA-BaBTSeqBa007P2--xx-xxx-xxxx-021-SF,Ba,,6
29076,21_F,CTCCCGAATCTCCATTAC,21,18,45.83571755029225,0.9994094245352584,50.0,3,0.16666666666666666,Ba_3,F,21_R,GACGATATGACTATAGAAGAA,21,43.75113369039178,1.0851744353652182,33.33333333333333,2,0.0,R,S144,BA-BaBTSeqBa007P2--xx-xxx-xxxx-021-SF,Ba,,6
29025,21_F,CTCCCGAATCTCCATTAC,21,18,45.83571755029225,0.9994094245352584,50.0,3,0.16666666666666666,Ba_3,F,21_R,GACGATATGACTATAGAAGAA,21,43.75113369039178,1.0851744353652182,33.33333333333333,2,0.0,R,S2,A0330,Ba,,589
29024,21_F,CTCCCGAATCTCCATTAC,21,18,45.83571755029225,0.9994094245352584,50.0,3,0.16666666666666666,Ba_3,F,21_R,GACGATATGACTATAGAAGAA,21,43.75113369039178,1.0851744353652182,33.33333333333333,2,0.0,R,S6,A0706,Ba,,19
29023,21_F,CTCCCGAATCTCCATTAC,21,18,45.83571755029225,0.9994094245352584,50.0,3,0.16666666666666666,Ba_3,F,21_R,GACGATATGACTATAGAAGAA,21,43.75113369039178,1.0851744353652182,33.33333333333333,2,0.0,R,S4,A0605,Ba,,7866
29022,21_F,CTCCCGAATCTCCATTAC,21,18,45.83571755029225,0.9994094245352584,50.0,3,0.16666666666666666,Ba_3,F,21_R,GACGATATGACTATAGAAGAA,21,43.75113369039178,1.0851744353652182,33.33333333333333,2,0.0,R,S5,A0615,Ba,,35
28796,21_F,CTCCCGAATCTCCATTAC,21,18,45.83571755029225,0.9994094245352584,50.0,3,0.16666666666666666,Ba_1,F,21_R,GACGATATGACTATAGAAGAA,21,43.75113369039178,1.0851744353652182,33.33333333333333,2,0.0,R,S144,BA-BaBTSeqBa007P2--xx-xxx-xxxx-021-SF,Ba,,6
28745,21_F,CTCCCGAATCTCCATTAC,21,18,45.83571755029225,0.9994094245352584,50.0,3,0.16666666666666666,Ba_1,F,21_R,GACGATATGACTATAGAAGAA,21,43.75113369039178,1.0851744353652182,33.33333333333333,2,0.0,R,S2,A0330,Ba,,589
28744,21_F,CTCCCGAATCTCCATTAC,21,18,45.83571755029225,0.9994094245352584,50.0,3,0.16666666666666666,Ba_1,F,21_R,GACGATATGACTATAGAAGAA,21,43.75113369039178,1.0851744353652182,33.33333333333333,2,0.0,R,S6,A0706,Ba,,19
28743,21_F,CTCCCGAATCTCCATTAC,21,18,45.83571755029225,0.9994094245352584,50.0,3,0.16666666666666666,Ba_1,F,21_R,GACGATATGACTATAGAAGAA,21,43.75113369039178,1.0851744353652182,33.33333333333333,2,0.0,R,S4,A0605,Ba,,7866
28742,21_F,CTCCCGAATCTCCATTAC,21,18,45.83571755029225,0.9994094245352584,50.0,3,0.16666666666666666,Ba_1,F,21_R,GACGATATGACTATAGAAGAA,21,43.75113369039178,1.0851744353652182,33.33333333333333,2,0.0,R,S5,A0615,Ba,,35
28885,21_F,CTCCCGAATCTCCATTAC,21,18,45.83571755029225,0.9994094245352584,50.0,3,0.16666666666666666,Ba_2,F,21_R,GACGATATGACTATAGAAGAA,21,43.75113369039178,1.0851744353652182,33.33333333333333,2,0.0,R,S2,A0330,Ba,,589
28884,21_F,CTCCCGAATCTCCATTAC,21,18,45.83571755029225,0.9994094245352584,50.0,3,0.16666666666666666,Ba_2,F,21_R,GACGATATGACTATAGAAGAA,21,43.75113369039178,1.0851744353652182,33.33333333333333,2,0.0,R,S6,A0706,Ba,,19
28883,21_F,CTCCCGAATCTCCATTAC,21,18,45.83571755029225,0.9994094245352584,50.0,3,0.16666666666666666,Ba_2,F,21_R,GACGATATGACTATAGAAGAA,21,43.75113369039178,1.0851744353652182,33.33333333333333,2,0.0,R,S4,A0605,Ba,,7866
28882,21_F,CTCCCGAATCTCCATTAC,21,18,45.83571755029225,0.9994094245352584,50.0,3,0.16666666666666666,Ba_2,F,21_R,GACGATATGACTATAGAAGAA,21,43.75113369039178,1.0851744353652182,33.33333333333333,2,0.0,R,S5,A0615,Ba,,35
30056,21_F,AGTTGACCTCCTGGTTGCAT,21,20,53.271581967285954,2.9988061278759446,50.0,2,0.0,Ft_2,F,21_R,ATCAACTCCGTCTTGTACCTAAT,23,51.121493762569685,0.8487179231596755,39.130434782608695,2,0.0,R,S144,BA-BaBTSeqBa007P2--xx-xxx-xxxx-021-SF,Ba,,6
30196,21_F,TGGTCACTTCTACCGTAATGC,21,21,51.975436036408674,0.8092243817245546,47.61904761904761,2,0.0,Yp_1_V2,F,21_R,ATATTGACGGTGATGGAATA,20,45.5967943563026,5.569417298381501,35.0,2,0.0,R,S144,BA-BaBTSeqBa007P2--xx-xxx-xxxx-021-SF,Ba,,6
30145,21_F,TGGTCACTTCTACCGTAATGC,21,21,51.975436036408674,0.8092243817245546,47.61904761904761,2,0.0,Yp_1_V2,F,21_R,ATATTGACGGTGATGGAATA,20,45.5967943563026,5.569417298381501,35.0,2,0.0,R,S2,A0330,Ba,,589
30144,21_F,TGGTCACTTCTACCGTAATGC,21,21,51.975436036408674,0.8092243817245546,47.61904761904761,2,0.0,Yp_1_V2,F,21_R,ATATTGACGGTGATGGAATA,20,45.5967943563026,5.569417298381501,35.0,2,0.0,R,S6,A0706,Ba,,19
30143,21_F,TGGTCACTTCTACCGTAATGC,21,21,51.975436036408674,0.8092243817245546,47.61904761904761,2,0.0,Yp_1_V2,F,21_R,ATATTGACGGTGATGGAATA,20,45.5967943563026,5.569417298381501,35.0,2,0.0,R,S4,A0605,Ba,,7866
30142,21_F,TGGTCACTTCTACCGTAATGC,21,21,51.975436036408674,0.8092243817245546,47.61904761904761,2,0.0,Yp_1_V2,F,21_R,ATATTGACGGTGATGGAATA,20,45.5967943563026,5.569417298381501,35.0,2,0.0,R,S5,A0615,Ba,,35
29916,21_F,AGTTGACCTCCTGGTTGCAT,21,20,53.271581967285954,3.214394123472061,50.0,2,0.0,Ft_2_V2,F,21_R,ATCAACTCCGTCTTGTACCTAAT,23,51.121493762569685,1.0643059187557924,39.130434782608695,2,0.0,R,S144,BA-BaBTSeqBa007P2--xx-xxx-xxxx-021-SF,Ba,,6
29865,21_F,AGTTGACCTCCTGGTTGCAT,21,20,53.271581967285954,3.214394123472061,50.0,2,0.0,Ft_2_V2,F,21_R,ATCAACTCCGTCTTGTACCTAAT,23,51.121493762569685,1.0643059187557924,39.130434782608695,2,0.0,R,S2,A0330,Ba,,589
29864,21_F,AGTTGACCTCCTGGTTGCAT,21,20,53.271581967285954,3.214394123472061,50.0,2,0.0,Ft_2_V2,F,21_R,ATCAACTCCGTCTTGTACCTAAT,23,51.121493762569685,1.0643059187557924,39.130434782608695,2,0.0,R,S6,A0706,Ba,,19
29863,21_F,AGTTGACCTCCTGGTTGCAT,21,20,53.271581967285954,3.214394123472061,50.0,2,0.0,Ft_2_V2,F,21_R,ATCAACTCCGTCTTGTACCTAAT,23,51.121493762569685,1.0643059187557924,39.130434782608695,2,0.0,R,S4,A0605,Ba,,7866
29862,21_F,AGTTGACCTCCTGGTTGCAT,21,20,53.271581967285954,3.214394123472061,50.0,2,0.0,Ft_2_V2,F,21_R,ATCAACTCCGTCTTGTACCTAAT,23,51.121493762569685,1.0643059187557924,39.130434782608695,2,0.0,R,S5,A0615,Ba,,35
30005,21_F,AGTTGACCTCCTGGTTGCAT,21,20,53.271581967285954,2.9988061278759446,50.0,2,0.0,Ft_2,F,21_R,ATCAACTCCGTCTTGTACCTAAT,23,51.121493762569685,0.8487179231596755,39.130434782608695,2,0.0,R,S2,A0330,Ba,,589
30004,21_F,AGTTGACCTCCTGGTTGCAT,21,20,53.271581967285954,2.9988061278759446,50.0,2,0.0,Ft_2,F,21_R,ATCAACTCCGTCTTGTACCTAAT,23,51.121493762569685,0.8487179231596755,39.130434782608695,2,0.0,R,S6,A0706,Ba,,19
30003,21_F,AGTTGACCTCCTGGTTGCAT,21,20,53.271581967285954,2.9988061278759446,50.0,2,0.0,Ft_2,F,21_R,ATCAACTCCGTCTTGTACCTAAT,23,51.121493762569685,0.8487179231596755,39.130434782608695,2,0.0,R,S4,A0605,Ba,,7866
30002,21_F,AGTTGACCTCCTGGTTGCAT,21,20,53.271581967285954,2.9988061278759446,50.0,2,0.0,Ft_2,F,21_R,ATCAACTCCGTCTTGTACCTAAT,23,51.121493762569685,0.8487179231596755,39.130434782608695,2,0.0,R,S5,A0615,Ba,,35
30425,21_F,GTAGCATGACGCTGACGC,21,18,53.53895434318776,1.5417241227033642,61.111111111111114,1,0.0,Yp_2,F,21_R,GATATTGACGGTGATGGAATA,21,47.1610625120988,4.836167708385594,38.095238095238095,2,0.0,R,S2,A0330,Ba,,589
30424,21_F,GTAGCATGACGCTGACGC,21,18,53.53895434318776,1.5417241227033642,61.111111111111114,1,0.0,Yp_2,F,21_R,GATATTGACGGTGATGGAATA,21,47.1610625120988,4.836167708385594,38.095238095238095,2,0.0,R,S6,A0706,Ba,,19
30423,21_F,GTAGCATGACGCTGACGC,21,18,53.53895434318776,1.5417241227033642,61.111111111111114,1,0.0,Yp_2,F,21_R,GATATTGACGGTGATGGAATA,21,47.1610625120988,4.836167708385594,38.095238095238095,2,0.0,R,S4,A0605,Ba,,7866
30422,21_F,GTAGCATGACGCTGACGC,21,18,53.53895434318776,1.5417241227033642,61.111111111111114,1,0.0,Yp_2,F,21_R,GATATTGACGGTGATGGAATA,21,47.1610625120988,4.836167708385594,38.095238095238095,2,0.0,R,S5,A0615,Ba,,35
30476,21_F,GTAGCATGACGCTGACGC,21,18,53.53895434318776,1.5417241227033642,61.111111111111114,1,0.0,Yp_2,F,21_R,GATATTGACGGTGATGGAATA,21,47.1610625120988,4.836167708385594,38.095238095238095,2,0.0,R,S144,BA-BaBTSeqBa007P2--xx-xxx-xxxx-021-SF,Ba,,6
30285,21_F,TGGTCACTTCTACCGTAATGC,21,21,51.975436036408674,0.5505462837659821,47.61904761904761,2,0.0,Yp_1,F,21_R,ATATTGACGGTGATGGAATA,20,45.5967943563026,5.828095396340076,35.0,2,0.0,R,S2,A0330,Ba,,589
30284,21_F,TGGTCACTTCTACCGTAATGC,21,21,51.975436036408674,0.5505462837659821,47.61904761904761,2,0.0,Yp_1,F,21_R,ATATTGACGGTGATGGAATA,20,45.5967943563026,5.828095396340076,35.0,2,0.0,R,S6,A0706,Ba,,19
30283,21_F,TGGTCACTTCTACCGTAATGC,21,21,51.975436036408674,0.5505462837659821,47.61904761904761,2,0.0,Yp_1,F,21_R,ATATTGACGGTGATGGAATA,20,45.5967943563026,5.828095396340076,35.0,2,0.0,R,S4,A0605,Ba,,7866
30282,21_F,TGGTCACTTCTACCGTAATGC,21,21,51.975436036408674,0.5505462837659821,47.61904761904761,2,0.0,Yp_1,F,21_R,ATATTGACGGTGATGGAATA,20,45.5967943563026,5.828095396340076,35.0,2,0.0,R,S5,A0615,Ba,,35
30336,21_F,TGGTCACTTCTACCGTAATGC,21,21,51.975436036408674,0.5505462837659821,47.61904761904761,2,0.0,Yp_1,F,21_R,ATATTGACGGTGATGGAATA,20,45.5967943563026,5.828095396340076,35.0,2,0.0,R,S144,BA-BaBTSeqBa007P2--xx-xxx-xxxx-021-SF,Ba,,6
29356,21_F,TCCTCTTCCTTCTTACCTTC,21,20,47.53643002175682,1.2342482821709242,45.0,2,0.0,Ba_5_V3,F,21_R,AAAAGAGAAGGAATAGAAGA,20,42.704962096888316,3.5972196426975667,30.0,4,0.2,R,S144,BA-BaBTSeqBa007P2--xx-xxx-xxxx-021-SF,Ba,,6
29305,21_F,TCCTCTTCCTTCTTACCTTC,21,20,47.53643002175682,1.2342482821709242,45.0,2,0.0,Ba_5_V3,F,21_R,AAAAGAGAAGGAATAGAAGA,20,42.704962096888316,3.5972196426975667,30.0,4,0.2,R,S2,A0330,Ba,,589
29304,21_F,TCCTCTTCCTTCTTACCTTC,21,20,47.53643002175682,1.2342482821709242,45.0,2,0.0,Ba_5_V3,F,21_R,AAAAGAGAAGGAATAGAAGA,20,42.704962096888316,3.5972196426975667,30.0,4,0.2,R,S6,A0706,Ba,,19
29303,21_F,TCCTCTTCCTTCTTACCTTC,21,20,47.53643002175682,1.2342482821709242,45.0,2,0.0,Ba_5_V3,F,21_R,AAAAGAGAAGGAATAGAAGA,20,42.704962096888316,3.5972196426975667,30.0,4,0.2,R,S4,A0605,Ba,,7866
29302,21_F,TCCTCTTCCTTCTTACCTTC,21,20,47.53643002175682,1.2342482821709242,45.0,2,0.0,Ba_5_V3,F,21_R,AAAAGAGAAGGAATAGAAGA,20,42.704962096888316,3.5972196426975667,30.0,4,0.2,R,S5,A0615,Ba,,35
29445,21_F,CCGAATCTCCATTACCTTGC,21,20,50.57884435983118,3.33578073431557,50.0,2,0.0,Ba_6_V4,F,21_R,GGAAATAAGTAAACTTGAGGAAG,23,47.32975050770313,0.08668688218751441,34.78260869565217,3,0.2608695652173913,R,S2,A0330,Ba,,589
29444,21_F,CCGAATCTCCATTACCTTGC,21,20,50.57884435983118,3.33578073431557,50.0,2,0.0,Ba_6_V4,F,21_R,GGAAATAAGTAAACTTGAGGAAG,23,47.32975050770313,0.08668688218751441,34.78260869565217,3,0.2608695652173913,R,S6,A0706,Ba,,19
29443,21_F,CCGAATCTCCATTACCTTGC,21,20,50.57884435983118,3.33578073431557,50.0,2,0.0,Ba_6_V4,F,21_R,GGAAATAAGTAAACTTGAGGAAG,23,47.32975050770313,0.08668688218751441,34.78260869565217,3,0.2608695652173913,R,S4,A0605,Ba,,7866
29442,21_F,CCGAATCTCCATTACCTTGC,21,20,50.57884435983118,3.33578073431557,50.0,2,0.0,Ba_6_V4,F,21_R,GGAAATAAGTAAACTTGAGGAAG,23,47.32975050770313,0.08668688218751441,34.78260869565217,3,0.2608695652173913,R,S5,A0615,Ba,,35
29164,21_F,TCCTCTTCCTTCTTACCTTC,21,20,47.53643002175682,1.2342482821709242,45.0,2,0.0,Ba_4,F,21_R,AAAAGAGAAGGAATAGAAGA,20,42.704962096888316,3.5972196426975667,30.0,4,0.2,R,S6,A0706,Ba,,19
29163,21_F,TCCTCTTCCTTCTTACCTTC,21,20,47.53643002175682,1.2342482821709242,45.0,2,0.0,Ba_4,F,21_R,AAAAGAGAAGGAATAGAAGA,20,42.704962096888316,3.5972196426975667,30.0,4,0.2,R,S4,A0605,Ba,,7866
29162,21_F,TCCTCTTCCTTCTTACCTTC,21,20,47.53643002175682,1.2342482821709242,45.0,2,0.0,Ba_4,F,21_R,AAAAGAGAAGGAATAGAAGA,20,42.704962096888316,3.5972196426975667,30.0,4,0.2,R,S5,A0615,Ba,,35
29165,21_F,TCCTCTTCCTTCTTACCTTC,21,20,47.53643002175682,1.2342482821709242,45.0,2,0.0,Ba_4,F,21_R,AAAAGAGAAGGAATAGAAGA,20,42.704962096888316,3.5972196426975667,30.0,4,0.2,R,S2,A0330,Ba,,589
29216,21_F,TCCTCTTCCTTCTTACCTTC,21,20,47.53643002175682,1.2342482821709242,45.0,2,0.0,Ba_4,F,21_R,AAAAGAGAAGGAATAGAAGA,20,42.704962096888316,3.5972196426975667,30.0,4,0.2,R,S144,BA-BaBTSeqBa007P2--xx-xxx-xxxx-021-SF,Ba,,6
29722,21_F,GCAGTATAGCCAGCAGGCC,21,19,54.85014520080398,5.9938536005799605,63.157894736842096,2,0.0,Ft_1,F,21_R,TCAACTCCGTCTTGTACCTAATATA,25,50.89865450602724,2.0423629058032238,36.0,2,0.0,R,S5,A0615,Ba,,35
29723,21_F,GCAGTATAGCCAGCAGGCC,21,19,54.85014520080398,5.9938536005799605,63.157894736842096,2,0.0,Ft_1,F,21_R,TCAACTCCGTCTTGTACCTAATATA,25,50.89865450602724,2.0423629058032238,36.0,2,0.0,R,S4,A0605,Ba,,7866
29724,21_F,GCAGTATAGCCAGCAGGCC,21,19,54.85014520080398,5.9938536005799605,63.157894736842096,2,0.0,Ft_1,F,21_R,TCAACTCCGTCTTGTACCTAATATA,25,50.89865450602724,2.0423629058032238,36.0,2,0.0,R,S6,A0706,Ba,,19
29725,21_F,GCAGTATAGCCAGCAGGCC,21,19,54.85014520080398,5.9938536005799605,63.157894736842096,2,0.0,Ft_1,F,21_R,TCAACTCCGTCTTGTACCTAATATA,25,50.89865450602724,2.0423629058032238,36.0,2,0.0,R,S2,A0330,Ba,,589
29776,21_F,GCAGTATAGCCAGCAGGCC,21,19,54.85014520080398,5.9938536005799605,63.157894736842096,2,0.0,Ft_1,F,21_R,TCAACTCCGTCTTGTACCTAATATA,25,50.89865450602724,2.0423629058032238,36.0,2,0.0,R,S144,BA-BaBTSeqBa007P2--xx-xxx-xxxx-021-SF,Ba,,6
29496,21_F,CCGAATCTCCATTACCTTGC,21,20,50.57884435983118,3.33578073431557,50.0,2,0.0,Ba_6_V4,F,21_R,GGAAATAAGTAAACTTGAGGAAG,23,47.32975050770313,0.08668688218751441,34.78260869565217,3,0.2608695652173913,R,S144,BA-BaBTSeqBa007P2--xx-xxx-xxxx-021-SF,Ba,,6
29636,21_F,CCGAATCTCCATTACCTTGC,21,20,50.57884435983118,3.3637206990885677,50.0,2,0.0,Ba_V45,F,21_R,GGAAATAAGTAAACTTGAGGAAG,23,47.32975050770313,0.11462684696051186,34.78260869565217,3,0.2608695652173913,R,S144,BA-BaBTSeqBa007P2--xx-xxx-xxxx-021-SF,Ba,,6
29583,21_F,CCGAATCTCCATTACCTTGC,21,20,50.57884435983118,3.3637206990885677,50.0,2,0.0,Ba_V45,F,21_R,GGAAATAAGTAAACTTGAGGAAG,23,47.32975050770313,0.11462684696051186,34.78260869565217,3,0.2608695652173913,R,S4,A0605,Ba,,7866
29582,21_F,CCGAATCTCCATTACCTTGC,21,20,50.57884435983118,3.3637206990885677,50.0,2,0.0,Ba_V45,F,21_R,GGAAATAAGTAAACTTGAGGAAG,23,47.32975050770313,0.11462684696051186,34.78260869565217,3,0.2608695652173913,R,S5,A0615,Ba,,35
29584,21_F,CCGAATCTCCATTACCTTGC,21,20,50.57884435983118,3.3637206990885677,50.0,2,0.0,Ba_V45,F,21_R,GGAAATAAGTAAACTTGAGGAAG,23,47.32975050770313,0.11462684696051186,34.78260869565217,3,0.2608695652173913,R,S6,A0706,Ba,,19
29585,21_F,CCGAATCTCCATTACCTTGC,21,20,50.57884435983118,3.3637206990885677,50.0,2,0.0,Ba_V45,F,21_R,GGAAATAAGTAAACTTGAGGAAG,23,47.32975050770313,0.11462684696051186,34.78260869565217,3,0.2608695652173913,R,S2,A0330,Ba,,589
49290,22_F,GTTGCTAACGGCTTCTCTGAG,22,21,53.30795735279185,4.451665752567827,52.38095238095239,2,0.0,Ft_1,F,22_R,TATCAATACCGATTCCTTGTCC,22,49.56866091958108,0.7123693193570588,40.90909090909091,2,0.0,R,S144,BA-BaBTSeqBa007P2--xx-xxx-xxxx-021-SF,Ba,,402
49379,22_F,TCTGGAGATGATGAAGCT,22,18,46.19802558824762,3.8591622555662752,44.444444444444436,2,0.0,Ft_2_V2,F,22_R,TGTTAGATACATTACCAGTC,20,43.545504699472026,6.5116831443418715,35.0,2,0.0,R,S4,A0605,Ba,,18152
49380,22_F,TCTGGAGATGATGAAGCT,22,18,46.19802558824762,3.8591622555662752,44.444444444444436,2,0.0,Ft_2_V2,F,22_R,TGTTAGATACATTACCAGTC,20,43.545504699472026,6.5116831443418715,35.0,2,0.0,R,S2,A0330,Ba,,475
49381,22_F,TCTGGAGATGATGAAGCT,22,18,46.19802558824762,3.8591622555662752,44.444444444444436,2,0.0,Ft_2_V2,F,22_R,TGTTAGATACATTACCAGTC,20,43.545504699472026,6.5116831443418715,35.0,2,0.0,R,S5,A0615,Ba,,659
49220,22_F,GTTGCTAACGGCTTCTCTGAG,22,21,53.30795735279185,4.451665752567827,52.38095238095239,2,0.0,Ft_1,F,22_R,TATCAATACCGATTCCTTGTCC,22,49.56866091958108,0.7123693193570588,40.90909090909091,2,0.0,R,S6,A0706,Ba,,601
49382,22_F,TCTGGAGATGATGAAGCT,22,18,46.19802558824762,3.8591622555662752,44.444444444444436,2,0.0,Ft_2_V2,F,22_R,TGTTAGATACATTACCAGTC,20,43.545504699472026,6.5116831443418715,35.0,2,0.0,R,S6,A0706,Ba,,601
49452,22_F,TCTGGAGATGATGAAGCT,22,18,46.19802558824762,3.8591622555662752,44.444444444444436,2,0.0,Ft_2_V2,F,22_R,TGTTAGATACATTACCAGTC,20,43.545504699472026,6.5116831443418715,35.0,2,0.0,R,S144,BA-BaBTSeqBa007P2--xx-xxx-xxxx-021-SF,Ba,,402
49219,22_F,GTTGCTAACGGCTTCTCTGAG,22,21,53.30795735279185,4.451665752567827,52.38095238095239,2,0.0,Ft_1,F,22_R,TATCAATACCGATTCCTTGTCC,22,49.56866091958108,0.7123693193570588,40.90909090909091,2,0.0,R,S5,A0615,Ba,,659
49218,22_F,GTTGCTAACGGCTTCTCTGAG,22,21,53.30795735279185,4.451665752567827,52.38095238095239,2,0.0,Ft_1,F,22_R,TATCAATACCGATTCCTTGTCC,22,49.56866091958108,0.7123693193570588,40.90909090909091,2,0.0,R,S2,A0330,Ba,,475
49217,22_F,GTTGCTAACGGCTTCTCTGAG,22,21,53.30795735279185,4.451665752567827,52.38095238095239,2,0.0,Ft_1,F,22_R,TATCAATACCGATTCCTTGTCC,22,49.56866091958108,0.7123693193570588,40.90909090909091,2,0.0,R,S4,A0605,Ba,,18152
49055,22_F,CCTCACATGCTATTGAA,22,17,42.563149145923425,4.651974514819179,41.17647058823529,2,0.0,Ba_V45,F,22_R,TTTGTTACCGAGATCAAGGAA,21,49.03812670461286,1.8230030438702516,38.095238095238095,3,0.14285714285714285,R,S4,A0605,Ba,,18152
48966,22_F,CCTCACATGCTATTGAA,22,17,42.563149145923425,4.679914479592178,41.17647058823529,2,0.0,Ba_6_V4,F,22_R,TTTGTTACCGAGATCAAGGAA,21,49.03812670461286,1.7950630790972544,38.095238095238095,3,0.14285714285714285,R,S144,BA-BaBTSeqBa007P2--xx-xxx-xxxx-021-SF,Ba,,402
49056,22_F,CCTCACATGCTATTGAA,22,17,42.563149145923425,4.651974514819179,41.17647058823529,2,0.0,Ba_V45,F,22_R,TTTGTTACCGAGATCAAGGAA,21,49.03812670461286,1.8230030438702516,38.095238095238095,3,0.14285714285714285,R,S2,A0330,Ba,,475