,Primer_Name_L,Seq_L,Amplicon,Primer_Length_L,Tm_L,Delta Tm_L,GC_Content_L,Length_Longest_Homopolymer_L,Percent_Homopolymer_L,exp,flank_L,Primer_Name_R,Seq_R,Primer_Length_R,Tm_R,Delta Tm_R,GC_Content_R,Length_Longest_Homopolymer_R,Percent_Homopolymer_R,flank_R,sample_id,sample_name,species,strain,n_reads
49058,22_F,CCTCACATGCTATTGAA,22,17,42.563149145923425,4.651974514819179,41.17647058823529,2,0.0,Ba_V45,F,22_R,TTTGTTACCGAGATCAAGGAA,21,49.03812670461286,1.8230030438702516,38.095238095238095,3,0.14285714285714285,R,S6,A0706,Ba,,601
49057,22_F,CCTCACATGCTATTGAA,22,17,42.563149145923425,4.651974514819179,41.17647058823529,2,0.0,Ba_V45,F,22_R,TTTGTTACCGAGATCAAGGAA,21,49.03812670461286,1.8230030438702516,38.095238095238095,3,0.14285714285714285,R,S5,A0615,Ba,,659
49128,22_F,CCTCACATGCTATTGAA,22,17,42.563149145923425,4.651974514819179,41.17647058823529,2,0.0,Ba_V45,F,22_R,TTTGTTACCGAGATCAAGGAA,21,49.03812670461286,1.8230030438702516,38.095238095238095,3,0.14285714285714285,R,S144,BA-BaBTSeqBa007P2--xx-xxx-xxxx-021-SF,Ba,,402
48896,22_F,CCTCACATGCTATTGAA,22,17,42.563149145923425,4.679914479592178,41.17647058823529,2,0.0,Ba_6_V4,F,22_R,TTTGTTACCGAGATCAAGGAA,21,49.03812670461286,1.7950630790972544,38.095238095238095,3,0.14285714285714285,R,S6,A0706,Ba,,601
49541,22_F,TCTGGAGATGATGAAGCT,22,18,46.19802558824762,4.074750251162392,44.444444444444436,2,0.0,Ft_2,F,22_R,TGTTAGATACATTACCAGTC,20,43.545504699472026,6.72727113993799,35.0,2,0.0,R,S4,A0605,Ba,,18152
49543,22_F,TCTGGAGATGATGAAGCT,22,18,46.19802558824762,4.074750251162392,44.444444444444436,2,0.0,Ft_2,F,22_R,TGTTAGATACATTACCAGTC,20,43.545504699472026,6.72727113993799,35.0,2,0.0,R,S5,A0615,Ba,,659
49938,22_F,AACGAACAAAAAGGCCATCAC,22,21,52.15380355215427,0.7289137995115881,42.857142857142854,5,0.2380952380952381,Yp_1,F,22_R,GCCAAGAACAAGACGACC,18,50.4798892360584,0.9450005165842869,55.555555555555564,2,0.0,R,S144,BA-BaBTSeqBa007P2--xx-xxx-xxxx-021-SF,Ba,,402
50030,22_F,GAACAAAAAGGCCATCACCTG,22,21,52.19947404994582,0.2022438294614304,47.61904761904761,5,0.2380952380952381,Yp_2,F,22_R,AAGAACAAGACGACCTATCGGA,22,53.02757106148135,1.0303408409969634,45.45454545454545,2,0.0,R,S6,A0706,Ba,,601
50029,22_F,GAACAAAAAGGCCATCACCTG,22,21,52.19947404994582,0.2022438294614304,47.61904761904761,5,0.2380952380952381,Yp_2,F,22_R,AAGAACAAGACGACCTATCGGA,22,53.02757106148135,1.0303408409969634,45.45454545454545,2,0.0,R,S5,A0615,Ba,,659
50028,22_F,GAACAAAAAGGCCATCACCTG,22,21,52.19947404994582,0.2022438294614304,47.61904761904761,5,0.2380952380952381,Yp_2,F,22_R,AAGAACAAGACGACCTATCGGA,22,53.02757106148135,1.0303408409969634,45.45454545454545,2,0.0,R,S2,A0330,Ba,,475
50027,22_F,GAACAAAAAGGCCATCACCTG,22,21,52.19947404994582,0.2022438294614304,47.61904761904761,5,0.2380952380952381,Yp_2,F,22_R,AAGAACAAGACGACCTATCGGA,22,53.02757106148135,1.0303408409969634,45.45454545454545,2,0.0,R,S4,A0605,Ba,,18152
49776,22_F,AACGAACAAAAAGGCCATCAC,22,21,52.15380355215427,0.9875918974701604,42.857142857142854,5,0.2380952380952381,Yp_1_V2,F,22_R,GCCAAGAACAAGACGACC,18,50.4798892360584,0.6863224186257142,55.555555555555564,2,0.0,R,S144,BA-BaBTSeqBa007P2--xx-xxx-xxxx-021-SF,Ba,,402
49868,22_F,AACGAACAAAAAGGCCATCAC,22,21,52.15380355215427,0.7289137995115881,42.857142857142854,5,0.2380952380952381,Yp_1,F,22_R,GCCAAGAACAAGACGACC,18,50.4798892360584,0.9450005165842869,55.555555555555564,2,0.0,R,S6,A0706,Ba,,601
49867,22_F,AACGAACAAAAAGGCCATCAC,22,21,52.15380355215427,0.7289137995115881,42.857142857142854,5,0.2380952380952381,Yp_1,F,22_R,GCCAAGAACAAGACGACC,18,50.4798892360584,0.9450005165842869,55.555555555555564,2,0.0,R,S5,A0615,Ba,,659
49866,22_F,AACGAACAAAAAGGCCATCAC,22,21,52.15380355215427,0.7289137995115881,42.857142857142854,5,0.2380952380952381,Yp_1,F,22_R,GCCAAGAACAAGACGACC,18,50.4798892360584,0.9450005165842869,55.555555555555564,2,0.0,R,S2,A0330,Ba,,475
49865,22_F,AACGAACAAAAAGGCCATCAC,22,21,52.15380355215427,0.7289137995115881,42.857142857142854,5,0.2380952380952381,Yp_1,F,22_R,GCCAAGAACAAGACGACC,18,50.4798892360584,0.9450005165842869,55.555555555555564,2,0.0,R,S4,A0605,Ba,,18152
49544,22_F,TCTGGAGATGATGAAGCT,22,18,46.19802558824762,4.074750251162392,44.444444444444436,2,0.0,Ft_2,F,22_R,TGTTAGATACATTACCAGTC,20,43.545504699472026,6.72727113993799,35.0,2,0.0,R,S6,A0706,Ba,,601
49614,22_F,TCTGGAGATGATGAAGCT,22,18,46.19802558824762,4.074750251162392,44.444444444444436,2,0.0,Ft_2,F,22_R,TGTTAGATACATTACCAGTC,20,43.545504699472026,6.72727113993799,35.0,2,0.0,R,S144,BA-BaBTSeqBa007P2--xx-xxx-xxxx-021-SF,Ba,,402
49542,22_F,TCTGGAGATGATGAAGCT,22,18,46.19802558824762,4.074750251162392,44.444444444444436,2,0.0,Ft_2,F,22_R,TGTTAGATACATTACCAGTC,20,43.545504699472026,6.72727113993799,35.0,2,0.0,R,S2,A0330,Ba,,475
49703,22_F,AACGAACAAAAAGGCCATCAC,22,21,52.15380355215427,0.9875918974701604,42.857142857142854,5,0.2380952380952381,Yp_1_V2,F,22_R,GCCAAGAACAAGACGACC,18,50.4798892360584,0.6863224186257142,55.555555555555564,2,0.0,R,S4,A0605,Ba,,18152
49705,22_F,AACGAACAAAAAGGCCATCAC,22,21,52.15380355215427,0.9875918974701604,42.857142857142854,5,0.2380952380952381,Yp_1_V2,F,22_R,GCCAAGAACAAGACGACC,18,50.4798892360584,0.6863224186257142,55.555555555555564,2,0.0,R,S5,A0615,Ba,,659
50100,22_F,GAACAAAAAGGCCATCACCTG,22,21,52.19947404994582,0.2022438294614304,47.61904761904761,5,0.2380952380952381,Yp_2,F,22_R,AAGAACAAGACGACCTATCGGA,22,53.02757106148135,1.0303408409969634,45.45454545454545,2,0.0,R,S144,BA-BaBTSeqBa007P2--xx-xxx-xxxx-021-SF,Ba,,402
49704,22_F,AACGAACAAAAAGGCCATCAC,22,21,52.15380355215427,0.9875918974701604,42.857142857142854,5,0.2380952380952381,Yp_1_V2,F,22_R,GCCAAGAACAAGACGACC,18,50.4798892360584,0.6863224186257142,55.555555555555564,2,0.0,R,S2,A0330,Ba,,475
49706,22_F,AACGAACAAAAAGGCCATCAC,22,21,52.15380355215427,0.9875918974701604,42.857142857142854,5,0.2380952380952381,Yp_1_V2,F,22_R,GCCAAGAACAAGACGACC,18,50.4798892360584,0.6863224186257142,55.555555555555564,2,0.0,R,S6,A0706,Ba,,601
48895,22_F,CCTCACATGCTATTGAA,22,17,42.563149145923425,4.679914479592178,41.17647058823529,2,0.0,Ba_6_V4,F,22_R,TTTGTTACCGAGATCAAGGAA,21,49.03812670461286,1.7950630790972544,38.095238095238095,3,0.14285714285714285,R,S5,A0615,Ba,,659
48893,22_F,CCTCACATGCTATTGAA,22,17,42.563149145923425,4.679914479592178,41.17647058823529,2,0.0,Ba_6_V4,F,22_R,TTTGTTACCGAGATCAAGGAA,21,49.03812670461286,1.7950630790972544,38.095238095238095,3,0.14285714285714285,R,S4,A0605,Ba,,18152
48248,22_F,CTATTGAAATGATCGTTCCTT,22,21,45.934329365648296,1.0980212398912954,33.33333333333333,3,0.14285714285714285,Ba_3,F,22_R,GGTGAAAGTGTGGGATAT,18,45.28058572236762,0.4442775966106183,44.444444444444436,3,0.3333333333333333,R,S6,A0706,Ba,,601
48247,22_F,CTATTGAAATGATCGTTCCTT,22,21,45.934329365648296,1.0980212398912954,33.33333333333333,3,0.14285714285714285,Ba_3,F,22_R,GGTGAAAGTGTGGGATAT,18,45.28058572236762,0.4442775966106183,44.444444444444436,3,0.3333333333333333,R,S5,A0615,Ba,,659
48246,22_F,CTATTGAAATGATCGTTCCTT,22,21,45.934329365648296,1.0980212398912954,33.33333333333333,3,0.14285714285714285,Ba_3,F,22_R,GGTGAAAGTGTGGGATAT,18,45.28058572236762,0.4442775966106183,44.444444444444436,3,0.3333333333333333,R,S2,A0330,Ba,,475
48245,22_F,CTATTGAAATGATCGTTCCTT,22,21,45.934329365648296,1.0980212398912954,33.33333333333333,3,0.14285714285714285,Ba_3,F,22_R,GGTGAAAGTGTGGGATAT,18,45.28058572236762,0.4442775966106183,44.444444444444436,3,0.3333333333333333,R,S4,A0605,Ba,,18152
48318,22_F,CTATTGAAATGATCGTTCCTT,22,21,45.934329365648296,1.0980212398912954,33.33333333333333,3,0.14285714285714285,Ba_3,F,22_R,GGTGAAAGTGTGGGATAT,18,45.28058572236762,0.4442775966106183,44.444444444444436,3,0.3333333333333333,R,S144,BA-BaBTSeqBa007P2--xx-xxx-xxxx-021-SF,Ba,,402
47994,22_F,CTATTGAAATGATCGTTCCTT,22,21,45.934329365648296,1.0980212398912954,33.33333333333333,3,0.14285714285714285,Ba_1,F,22_R,GGTGAAAGTGTGGGATAT,18,45.28058572236762,0.4442775966106183,44.444444444444436,3,0.3333333333333333,R,S144,BA-BaBTSeqBa007P2--xx-xxx-xxxx-021-SF,Ba,,402
47924,22_F,CTATTGAAATGATCGTTCCTT,22,21,45.934329365648296,1.0980212398912954,33.33333333333333,3,0.14285714285714285,Ba_1,F,22_R,GGTGAAAGTGTGGGATAT,18,45.28058572236762,0.4442775966106183,44.444444444444436,3,0.3333333333333333,R,S6,A0706,Ba,,601
47923,22_F,CTATTGAAATGATCGTTCCTT,22,21,45.934329365648296,1.0980212398912954,33.33333333333333,3,0.14285714285714285,Ba_1,F,22_R,GGTGAAAGTGTGGGATAT,18,45.28058572236762,0.4442775966106183,44.444444444444436,3,0.3333333333333333,R,S5,A0615,Ba,,659
47922,22_F,CTATTGAAATGATCGTTCCTT,22,21,45.934329365648296,1.0980212398912954,33.33333333333333,3,0.14285714285714285,Ba_1,F,22_R,GGTGAAAGTGTGGGATAT,18,45.28058572236762,0.4442775966106183,44.444444444444436,3,0.3333333333333333,R,S2,A0330,Ba,,475
47921,22_F,CTATTGAAATGATCGTTCCTT,22,21,45.934329365648296,1.0980212398912954,33.33333333333333,3,0.14285714285714285,Ba_1,F,22_R,GGTGAAAGTGTGGGATAT,18,45.28058572236762,0.4442775966106183,44.444444444444436,3,0.3333333333333333,R,S4,A0605,Ba,,18152
48894,22_F,CCTCACATGCTATTGAA,22,17,42.563149145923425,4.679914479592178,41.17647058823529,2,0.0,Ba_6_V4,F,22_R,TTTGTTACCGAGATCAAGGAA,21,49.03812670461286,1.7950630790972544,38.095238095238095,3,0.14285714285714285,R,S2,A0330,Ba,,475
48156,22_F,CTATTGAAATGATCGTTCCTT,22,21,45.934329365648296,1.0980212398912954,33.33333333333333,3,0.14285714285714285,Ba_2,F,22_R,GGTGAAAGTGTGGGATAT,18,45.28058572236762,0.4442775966106183,44.444444444444436,3,0.3333333333333333,R,S144,BA-BaBTSeqBa007P2--xx-xxx-xxxx-021-SF,Ba,,402
48086,22_F,CTATTGAAATGATCGTTCCTT,22,21,45.934329365648296,1.0980212398912954,33.33333333333333,3,0.14285714285714285,Ba_2,F,22_R,GGTGAAAGTGTGGGATAT,18,45.28058572236762,0.4442775966106183,44.444444444444436,3,0.3333333333333333,R,S6,A0706,Ba,,601
48085,22_F,CTATTGAAATGATCGTTCCTT,22,21,45.934329365648296,1.0980212398912954,33.33333333333333,3,0.14285714285714285,Ba_2,F,22_R,GGTGAAAGTGTGGGATAT,18,45.28058572236762,0.4442775966106183,44.444444444444436,3,0.3333333333333333,R,S5,A0615,Ba,,659
48084,22_F,CTATTGAAATGATCGTTCCTT,22,21,45.934329365648296,1.0980212398912954,33.33333333333333,3,0.14285714285714285,Ba_2,F,22_R,GGTGAAAGTGTGGGATAT,18,45.28058572236762,0.4442775966106183,44.444444444444436,3,0.3333333333333333,R,S2,A0330,Ba,,475
48083,22_F,CTATTGAAATGATCGTTCCTT,22,21,45.934329365648296,1.0980212398912954,33.33333333333333,3,0.14285714285714285,Ba_2,F,22_R,GGTGAAAGTGTGGGATAT,18,45.28058572236762,0.4442775966106183,44.444444444444436,3,0.3333333333333333,R,S4,A0605,Ba,,18152
48407,22_F,CCTCACATGCTATTGAA,22,17,42.563149145923425,3.7390325936624578,41.17647058823529,2,0.0,Ba_4,F,22_R,TTTGTTACCGAGATCAAGGAA,21,49.03812670461286,2.7359449650269743,38.095238095238095,3,0.14285714285714285,R,S4,A0605,Ba,,18152
48734,22_F,CCTCACATGCTATTGAA,22,17,42.563149145923425,3.7390325936624578,41.17647058823529,2,0.0,Ba_5_V3,F,22_R,TTTGTTACCGAGATCAAGGAA,21,49.03812670461286,2.7359449650269743,38.095238095238095,3,0.14285714285714285,R,S6,A0706,Ba,,601
48733,22_F,CCTCACATGCTATTGAA,22,17,42.563149145923425,3.7390325936624578,41.17647058823529,2,0.0,Ba_5_V3,F,22_R,TTTGTTACCGAGATCAAGGAA,21,49.03812670461286,2.7359449650269743,38.095238095238095,3,0.14285714285714285,R,S5,A0615,Ba,,659
48732,22_F,CCTCACATGCTATTGAA,22,17,42.563149145923425,3.7390325936624578,41.17647058823529,2,0.0,Ba_5_V3,F,22_R,TTTGTTACCGAGATCAAGGAA,21,49.03812670461286,2.7359449650269743,38.095238095238095,3,0.14285714285714285,R,S2,A0330,Ba,,475
48731,22_F,CCTCACATGCTATTGAA,22,17,42.563149145923425,3.7390325936624578,41.17647058823529,2,0.0,Ba_5_V3,F,22_R,TTTGTTACCGAGATCAAGGAA,21,49.03812670461286,2.7359449650269743,38.095238095238095,3,0.14285714285714285,R,S4,A0605,Ba,,18152
48804,22_F,CCTCACATGCTATTGAA,22,17,42.563149145923425,3.7390325936624578,41.17647058823529,2,0.0,Ba_5_V3,F,22_R,TTTGTTACCGAGATCAAGGAA,21,49.03812670461286,2.7359449650269743,38.095238095238095,3,0.14285714285714285,R,S144,BA-BaBTSeqBa007P2--xx-xxx-xxxx-021-SF,Ba,,402
48480,22_F,CCTCACATGCTATTGAA,22,17,42.563149145923425,3.7390325936624578,41.17647058823529,2,0.0,Ba_4,F,22_R,TTTGTTACCGAGATCAAGGAA,21,49.03812670461286,2.7359449650269743,38.095238095238095,3,0.14285714285714285,R,S144,BA-BaBTSeqBa007P2--xx-xxx-xxxx-021-SF,Ba,,402
48410,22_F,CCTCACATGCTATTGAA,22,17,42.563149145923425,3.7390325936624578,41.17647058823529,2,0.0,Ba_4,F,22_R,TTTGTTACCGAGATCAAGGAA,21,49.03812670461286,2.7359449650269743,38.095238095238095,3,0.14285714285714285,R,S6,A0706,Ba,,601
48409,22_F,CCTCACATGCTATTGAA,22,17,42.563149145923425,3.7390325936624578,41.17647058823529,2,0.0,Ba_4,F,22_R,TTTGTTACCGAGATCAAGGAA,21,49.03812670461286,2.7359449650269743,38.095238095238095,3,0.14285714285714285,R,S5,A0615,Ba,,659
48408,22_F,CCTCACATGCTATTGAA,22,17,42.563149145923425,3.7390325936624578,41.17647058823529,2,0.0,Ba_4,F,22_R,TTTGTTACCGAGATCAAGGAA,21,49.03812670461286,2.7359449650269743,38.095238095238095,3,0.14285714285714285,R,S2,A0330,Ba,,475
48642,22_F,CCTCACATGCTATTGAA,22,17,42.563149145923425,3.90936830118978,41.17647058823529,2,0.0,Ba_5_V35,F,22_R,TTTGTTACCGAGATCAAGGAA,21,49.03812670461286,2.565609257499652,38.095238095238095,3,0.14285714285714285,R,S144,BA-BaBTSeqBa007P2--xx-xxx-xxxx-021-SF,Ba,,402
48572,22_F,CCTCACATGCTATTGAA,22,17,42.563149145923425,3.90936830118978,41.17647058823529,2,0.0,Ba_5_V35,F,22_R,TTTGTTACCGAGATCAAGGAA,21,49.03812670461286,2.565609257499652,38.095238095238095,3,0.14285714285714285,R,S6,A0706,Ba,,601
48571,22_F,CCTCACATGCTATTGAA,22,17,42.563149145923425,3.90936830118978,41.17647058823529,2,0.0,Ba_5_V35,F,22_R,TTTGTTACCGAGATCAAGGAA,21,49.03812670461286,2.565609257499652,38.095238095238095,3,0.14285714285714285,R,S5,A0615,Ba,,659
48570,22_F,CCTCACATGCTATTGAA,22,17,42.563149145923425,3.90936830118978,41.17647058823529,2,0.0,Ba_5_V35,F,22_R,TTTGTTACCGAGATCAAGGAA,21,49.03812670461286,2.565609257499652,38.095238095238095,3,0.14285714285714285,R,S2,A0330,Ba,,475
48569,22_F,CCTCACATGCTATTGAA,22,17,42.563149145923425,3.90936830118978,41.17647058823529,2,0.0,Ba_5_V35,F,22_R,TTTGTTACCGAGATCAAGGAA,21,49.03812670461286,2.565609257499652,38.095238095238095,3,0.14285714285714285,R,S4,A0605,Ba,,18152
96694,23_F,CCATTCATCGGCACAGAT,23,18,49.07754433166502,2.0886673230190884,50.0,2,0.0,Yp_1_V2,F,23_R,ATCCATAATGCCTACCTT,18,43.63846953809399,7.527742116590113,38.888888888888886,2,0.0,R,S144,BA-BaBTSeqBa007P2--xx-xxx-xxxx-021-SF,Ba,,2
96581,23_F,ACTGTTAGAAAACCCCATAAAG,23,22,48.126020546421394,2.1467552929886224,36.36363636363637,4,0.5,Ft_2,F,23_R,AACTTTACTAAGTCTAGGCTC,21,46.27570371501083,3.997072124399189,38.095238095238095,3,0.14285714285714285,R,S144,BA-BaBTSeqBa007P2--xx-xxx-xxxx-021-SF,Ba,,2
96468,23_F,ACTGTTAGAAAACCCCATAAAG,23,22,48.126020546421394,1.9311672973925056,36.36363636363637,4,0.5,Ft_2_V2,F,23_R,AACTTTACTAAGTCTAGGCTC,21,46.27570371501083,3.781484128803072,38.095238095238095,3,0.14285714285714285,R,S144,BA-BaBTSeqBa007P2--xx-xxx-xxxx-021-SF,Ba,,2
96920,23_F,CCATTCATCGGCACAGAT,23,18,49.07754433166502,2.919685888819366,50.0,2,0.0,Yp_2,F,23_R,ATCCATAATGCCTACCTT,18,43.63846953809399,8.35876068239039,38.888888888888886,2,0.0,R,S144,BA-BaBTSeqBa007P2--xx-xxx-xxxx-021-SF,Ba,,2
96807,23_F,GGCGCTCCATTCATCGGCACAGATAC,23,26,61.87238817506818,10.447498422425497,57.69230769230769,2,0.0,Yp_1,F,23_R,AGAAGTCATCACGGCGAT,18,50.32476075275599,1.1001289998866923,50.0,2,0.0,R,S144,BA-BaBTSeqBa007P2--xx-xxx-xxxx-021-SF,Ba,,2
96129,23_F,AACAGGAATAACGGGAGTGACC,23,22,54.11317531157175,6.870111686056142,50.0,3,0.13636363636363635,Ba_6_V4,F,23_R,CCGTTGCTCCAGTATCTCCTG,21,54.407563527916686,7.164499902401083,57.14285714285714,2,0.0,R,S144,BA-BaBTSeqBa007P2--xx-xxx-xxxx-021-SF,Ba,,2
95903,23_F,ACAACAGGAGCGACCG,23,16,50.72943778171327,4.427256042127381,62.5,2,0.0,Ba_4,F,23_R,CGTTGGACCGGTTACT,16,47.25759897179285,0.9554172322069548,56.25,2,0.0,R,S144,BA-BaBTSeqBa007P2--xx-xxx-xxxx-021-SF,Ba,,2
96016,23_F,ACAACAGGAGCGACCG,23,16,50.72943778171327,4.427256042127381,62.5,2,0.0,Ba_5_V3,F,23_R,CGTTGGACCGGTTACT,16,47.25759897179285,0.9554172322069548,56.25,2,0.0,R,S144,BA-BaBTSeqBa007P2--xx-xxx-xxxx-021-SF,Ba,,2
96355,23_F,AACTGTTAGAAAACCCCA,23,18,44.78035186513404,4.075939735089982,38.888888888888886,4,0.4444444444444444,Ft_1,F,23_R,TTTACTAAGTCTAGGCTCT,19,43.20288333567754,5.653408264546478,36.84210526315789,3,0.15789473684210525,R,S144,BA-BaBTSeqBa007P2--xx-xxx-xxxx-021-SF,Ba,,2
96242,23_F,AACAGGAATAACGGGAGTGACC,23,22,54.11317531157175,6.898051650829139,50.0,3,0.13636363636363635,Ba_V45,F,23_R,CCGTTGCTCCAGTATCTCCTG,21,54.407563527916686,7.19243986717408,57.14285714285714,2,0.0,R,S144,BA-BaBTSeqBa007P2--xx-xxx-xxxx-021-SF,Ba,,2
30631,24_F,GTGTCTAAATTGTGACAT,24,18,41.49625220226778,3.3400559234892166,33.33333333333333,3,0.16666666666666666,Ba_1,F,24_R,AGTGTTGTCGGGATTATA,18,43.894245600458184,0.9420625252988089,38.888888888888886,3,0.16666666666666666,R,S144,BA-BaBTSeqBa007P2--xx-xxx-xxxx-021-SF,Ba,,54
30564,24_F,GTGTCTAAATTGTGACAT,24,18,41.49625220226778,3.3400559234892166,33.33333333333333,3,0.16666666666666666,Ba_1,F,24_R,AGTGTTGTCGGGATTATA,18,43.894245600458184,0.9420625252988089,38.888888888888886,3,0.16666666666666666,R,S2,A0330,Ba,,0
30563,24_F,GTGTCTAAATTGTGACAT,24,18,41.49625220226778,3.3400559234892166,33.33333333333333,3,0.16666666666666666,Ba_1,F,24_R,AGTGTTGTCGGGATTATA,18,43.894245600458184,0.9420625252988089,38.888888888888886,3,0.16666666666666666,R,S4,A0605,Ba,,0
30562,24_F,GTGTCTAAATTGTGACAT,24,18,41.49625220226778,3.3400559234892166,33.33333333333333,3,0.16666666666666666,Ba_1,F,24_R,AGTGTTGTCGGGATTATA,18,43.894245600458184,0.9420625252988089,38.888888888888886,3,0.16666666666666666,R,S5,A0615,Ba,,0
30681,24_F,GTGTCTAAATTGTGACAT,24,18,41.49625220226778,3.3400559234892166,33.33333333333333,3,0.16666666666666666,Ba_2,F,24_R,AGTGTTGTCGGGATTATA,18,43.894245600458184,0.9420625252988089,38.888888888888886,3,0.16666666666666666,R,S2,A0330,Ba,,0
30680,24_F,GTGTCTAAATTGTGACAT,24,18,41.49625220226778,3.3400559234892166,33.33333333333333,3,0.16666666666666666,Ba_2,F,24_R,AGTGTTGTCGGGATTATA,18,43.894245600458184,0.9420625252988089,38.888888888888886,3,0.16666666666666666,R,S4,A0605,Ba,,0
30679,24_F,GTGTCTAAATTGTGACAT,24,18,41.49625220226778,3.3400559234892166,33.33333333333333,3,0.16666666666666666,Ba_2,F,24_R,AGTGTTGTCGGGATTATA,18,43.894245600458184,0.9420625252988089,38.888888888888886,3,0.16666666666666666,R,S5,A0615,Ba,,0
31147,24_F,AGTGATAGTTCCTTCTTCTT,24,20,44.910173220611064,1.3920085189748337,35.0,2,0.0,Ba_5_V3,F,24_R,GAGAGCGGAAGTGTTGTCG,19,53.00491451160599,6.7027327720200995,57.894736842105274,2,0.0,R,S5,A0615,Ba,,0
31148,24_F,AGTGATAGTTCCTTCTTCTT,24,20,44.910173220611064,1.3920085189748337,35.0,2,0.0,Ba_5_V3,F,24_R,GAGAGCGGAAGTGTTGTCG,19,53.00491451160599,6.7027327720200995,57.894736842105274,2,0.0,R,S4,A0605,Ba,,0
31149,24_F,AGTGATAGTTCCTTCTTCTT,24,20,44.910173220611064,1.3920085189748337,35.0,2,0.0,Ba_5_V3,F,24_R,GAGAGCGGAAGTGTTGTCG,19,53.00491451160599,6.7027327720200995,57.894736842105274,2,0.0,R,S2,A0330,Ba,,0
31099,24_F,AGTGATAGTTCCTTCTTCTT,24,20,44.910173220611064,1.5623442265021552,35.0,2,0.0,Ba_5_V35,F,24_R,GAGAGCGGAAGTGTTGTCG,19,53.00491451160599,6.532397064492778,57.894736842105274,2,0.0,R,S144,BA-BaBTSeqBa007P2--xx-xxx-xxxx-021-SF,Ba,,54
30982,24_F,AGTGATAGTTCCTTCTTCTT,24,20,44.910173220611064,1.3920085189748337,35.0,2,0.0,Ba_4,F,24_R,GAGAGCGGAAGTGTTGTCG,19,53.00491451160599,6.7027327720200995,57.894736842105274,2,0.0,R,S144,BA-BaBTSeqBa007P2--xx-xxx-xxxx-021-SF,Ba,,54
31030,24_F,AGTGATAGTTCCTTCTTCTT,24,20,44.910173220611064,1.5623442265021552,35.0,2,0.0,Ba_5_V35,F,24_R,GAGAGCGGAAGTGTTGTCG,19,53.00491451160599,6.532397064492778,57.894736842105274,2,0.0,R,S5,A0615,Ba,,0
31031,24_F,AGTGATAGTTCCTTCTTCTT,24,20,44.910173220611064,1.5623442265021552,35.0,2,0.0,Ba_5_V35,F,24_R,GAGAGCGGAAGTGTTGTCG,19,53.00491451160599,6.532397064492778,57.894736842105274,2,0.0,R,S4,A0605,Ba,,0
31032,24_F,AGTGATAGTTCCTTCTTCTT,24,20,44.910173220611064,1.5623442265021552,35.0,2,0.0,Ba_5_V35,F,24_R,GAGAGCGGAAGTGTTGTCG,19,53.00491451160599,6.532397064492778,57.894736842105274,2,0.0,R,S2,A0330,Ba,,0