,Primer_Name_L,Seq_L,Amplicon,Primer_Length_L,Tm_L,Delta Tm_L,GC_Content_L,Length_Longest_Homopolymer_L,Percent_Homopolymer_L,exp,flank_L,Primer_Name_R,Seq_R,Primer_Length_R,Tm_R,Delta Tm_R,GC_Content_R,Length_Longest_Homopolymer_R,Percent_Homopolymer_R,flank_R,sample_id,sample_name,species,strain,n_reads
18828,16_F,GAAGAACAAAACCGTGTT,16,18,45.523869083781726,0.7783126558041573,38.888888888888886,4,0.2222222222222222,Ba_5_V3,F,16_R,ATGATTTGTCCGTTATAAC,19,42.311440670138786,3.9907410694471115,31.578947368421048,3,0.15789473684210525,R,S2,A0330,Ba,,1
18829,16_F,GAAGAACAAAACCGTGTT,16,18,45.523869083781726,0.7783126558041573,38.888888888888886,4,0.2222222222222222,Ba_5_V3,F,16_R,ATGATTTGTCCGTTATAAC,19,42.311440670138786,3.9907410694471115,31.578947368421048,3,0.15789473684210525,R,S6,A0706,Ba,,3
18830,16_F,GAAGAACAAAACCGTGTT,16,18,45.523869083781726,0.7783126558041573,38.888888888888886,4,0.2222222222222222,Ba_5_V3,F,16_R,ATGATTTGTCCGTTATAAC,19,42.311440670138786,3.9907410694471115,31.578947368421048,3,0.15789473684210525,R,S5,A0615,Ba,,1
19802,16_F,ACGTGAGAGCGGCAGT,16,16,52.447638647081874,1.7325540402790836,62.5,2,0.0,Ba_OkX,F,16_R,TTGCACCTTCTGTGTTC,17,46.37142662110779,4.343657985695002,47.058823529411754,2,0.0,R,S4,A0605,Ba,,2406
19803,16_F,ACGTGAGAGCGGCAGT,16,16,52.447638647081874,1.7325540402790836,62.5,2,0.0,Ba_OkX,F,16_R,TTGCACCTTCTGTGTTC,17,46.37142662110779,4.343657985695002,47.058823529411754,2,0.0,R,S2,A0330,Ba,,1
19804,16_F,ACGTGAGAGCGGCAGT,16,16,52.447638647081874,1.7325540402790836,62.5,2,0.0,Ba_OkX,F,16_R,TTGCACCTTCTGTGTTC,17,46.37142662110779,4.343657985695002,47.058823529411754,2,0.0,R,S6,A0706,Ba,,3
19673,16_F,GACGTGAGAGCGGCAGTGAATG,16,22,58.2653277803978,6.69291396186005,59.09090909090909,2,0.0,Ba_LowSH,F,16_R,TTGTTGCACCTTCTGTGTT,19,49.695331996586894,1.8770818219508456,42.105263157894726,2,0.0,R,S144,BA-BaBTSeqBa007P2--xx-xxx-xxxx-021-SF,Ba,,385
19805,16_F,ACGTGAGAGCGGCAGT,16,16,52.447638647081874,1.7325540402790836,62.5,2,0.0,Ba_OkX,F,16_R,TTGCACCTTCTGTGTTC,17,46.37142662110779,4.343657985695002,47.058823529411754,2,0.0,R,S5,A0615,Ba,,1
19868,16_F,ACGTGAGAGCGGCAGT,16,16,52.447638647081874,1.7325540402790836,62.5,2,0.0,Ba_OkX,F,16_R,TTGCACCTTCTGTGTTC,17,46.37142662110779,4.343657985695002,47.058823529411754,2,0.0,R,S144,BA-BaBTSeqBa007P2--xx-xxx-xxxx-021-SF,Ba,,385
19412,16_F,GACGTGAGAGCGGCAGTGAATG,16,22,58.2653277803978,6.742881672253944,59.09090909090909,2,0.0,Ba_HighSpec,F,16_R,TTGCACCTTCTGTGTTC,17,46.37142662110779,5.151019487036066,47.058823529411754,2,0.0,R,S4,A0605,Ba,,2406
19413,16_F,GACGTGAGAGCGGCAGTGAATG,16,22,58.2653277803978,6.742881672253944,59.09090909090909,2,0.0,Ba_HighSpec,F,16_R,TTGCACCTTCTGTGTTC,17,46.37142662110779,5.151019487036066,47.058823529411754,2,0.0,R,S2,A0330,Ba,,1
19414,16_F,GACGTGAGAGCGGCAGTGAATG,16,22,58.2653277803978,6.742881672253944,59.09090909090909,2,0.0,Ba_HighSpec,F,16_R,TTGCACCTTCTGTGTTC,17,46.37142662110779,5.151019487036066,47.058823529411754,2,0.0,R,S6,A0706,Ba,,3
19415,16_F,GACGTGAGAGCGGCAGTGAATG,16,22,58.2653277803978,6.742881672253944,59.09090909090909,2,0.0,Ba_HighSpec,F,16_R,TTGCACCTTCTGTGTTC,17,46.37142662110779,5.151019487036066,47.058823529411754,2,0.0,R,S5,A0615,Ba,,1
19610,16_F,GACGTGAGAGCGGCAGTGAATG,16,22,58.2653277803978,6.69291396186005,59.09090909090909,2,0.0,Ba_LowSH,F,16_R,TTGTTGCACCTTCTGTGTT,19,49.695331996586894,1.8770818219508456,42.105263157894726,2,0.0,R,S5,A0615,Ba,,1
19607,16_F,GACGTGAGAGCGGCAGTGAATG,16,22,58.2653277803978,6.69291396186005,59.09090909090909,2,0.0,Ba_LowSH,F,16_R,TTGTTGCACCTTCTGTGTT,19,49.695331996586894,1.8770818219508456,42.105263157894726,2,0.0,R,S4,A0605,Ba,,2406
19608,16_F,GACGTGAGAGCGGCAGTGAATG,16,22,58.2653277803978,6.69291396186005,59.09090909090909,2,0.0,Ba_LowSH,F,16_R,TTGTTGCACCTTCTGTGTT,19,49.695331996586894,1.8770818219508456,42.105263157894726,2,0.0,R,S2,A0330,Ba,,1
19609,16_F,GACGTGAGAGCGGCAGTGAATG,16,22,58.2653277803978,6.69291396186005,59.09090909090909,2,0.0,Ba_LowSH,F,16_R,TTGTTGCACCTTCTGTGTT,19,49.695331996586894,1.8770818219508456,42.105263157894726,2,0.0,R,S6,A0706,Ba,,3
19478,16_F,GACGTGAGAGCGGCAGTGAATG,16,22,58.2653277803978,6.742881672253944,59.09090909090909,2,0.0,Ba_HighSpec,F,16_R,TTGCACCTTCTGTGTTC,17,46.37142662110779,5.151019487036066,47.058823529411754,2,0.0,R,S144,BA-BaBTSeqBa007P2--xx-xxx-xxxx-021-SF,Ba,,385
47514,17_F,TGATAGTGAGCAGGCGCCAAT,17,21,56.273676895493224,5.1074652408091135,52.38095238095239,2,0.0,Yp_1_V2,F,17_R,GTGGAATGTCAGGATGAATGAC,22,51.31827783181371,0.1520661771295906,45.45454545454545,2,0.0,R,S144,BA-BaBTSeqBa007P2--xx-xxx-xxxx-021-SF,Ba,,175
47674,17_F,TGATAGTGAGCAGGCGCCAAT,17,21,56.273676895493224,4.84878714285054,52.38095238095239,2,0.0,Yp_1,F,17_R,GTGGAATGTCAGGATGAATGAC,22,51.31827783181371,0.10661192082898197,45.45454545454545,2,0.0,R,S144,BA-BaBTSeqBa007P2--xx-xxx-xxxx-021-SF,Ba,,175
47444,17_F,TGATAGTGAGCAGGCGCCAAT,17,21,56.273676895493224,5.1074652408091135,52.38095238095239,2,0.0,Yp_1_V2,F,17_R,GTGGAATGTCAGGATGAATGAC,22,51.31827783181371,0.1520661771295906,45.45454545454545,2,0.0,R,S2,A0330,Ba,,5
47604,17_F,TGATAGTGAGCAGGCGCCAAT,17,21,56.273676895493224,4.84878714285054,52.38095238095239,2,0.0,Yp_1,F,17_R,GTGGAATGTCAGGATGAATGAC,22,51.31827783181371,0.10661192082898197,45.45454545454545,2,0.0,R,S2,A0330,Ba,,5
47603,17_F,TGATAGTGAGCAGGCGCCAAT,17,21,56.273676895493224,4.84878714285054,52.38095238095239,2,0.0,Yp_1,F,17_R,GTGGAATGTCAGGATGAATGAC,22,51.31827783181371,0.10661192082898197,45.45454545454545,2,0.0,R,S4,A0605,Ba,,2329
47602,17_F,TGATAGTGAGCAGGCGCCAAT,17,21,56.273676895493224,4.84878714285054,52.38095238095239,2,0.0,Yp_1,F,17_R,GTGGAATGTCAGGATGAATGAC,22,51.31827783181371,0.10661192082898197,45.45454545454545,2,0.0,R,S5,A0615,Ba,,3
47601,17_F,TGATAGTGAGCAGGCGCCAAT,17,21,56.273676895493224,4.84878714285054,52.38095238095239,2,0.0,Yp_1,F,17_R,GTGGAATGTCAGGATGAATGAC,22,51.31827783181371,0.10661192082898197,45.45454545454545,2,0.0,R,S6,A0706,Ba,,3
47443,17_F,TGATAGTGAGCAGGCGCCAAT,17,21,56.273676895493224,5.1074652408091135,52.38095238095239,2,0.0,Yp_1_V2,F,17_R,GTGGAATGTCAGGATGAATGAC,22,51.31827783181371,0.1520661771295906,45.45454545454545,2,0.0,R,S4,A0605,Ba,,2329
47441,17_F,TGATAGTGAGCAGGCGCCAAT,17,21,56.273676895493224,5.1074652408091135,52.38095238095239,2,0.0,Yp_1_V2,F,17_R,GTGGAATGTCAGGATGAATGAC,22,51.31827783181371,0.1520661771295906,45.45454545454545,2,0.0,R,S6,A0706,Ba,,3
47284,17_F,AGTTGGTGATAGAGTAATCGA,17,21,47.711890833511525,2.5608850058984918,38.095238095238095,2,0.0,Ft_2,F,17_R,AACTATTGCGGCTGCAGAGC,20,55.62812077499774,5.3553449355877305,55.00000000000001,2,0.0,R,S2,A0330,Ba,,5
47283,17_F,AGTTGGTGATAGAGTAATCGA,17,21,47.711890833511525,2.5608850058984918,38.095238095238095,2,0.0,Ft_2,F,17_R,AACTATTGCGGCTGCAGAGC,20,55.62812077499774,5.3553449355877305,55.00000000000001,2,0.0,R,S4,A0605,Ba,,2329
47281,17_F,AGTTGGTGATAGAGTAATCGA,17,21,47.711890833511525,2.5608850058984918,38.095238095238095,2,0.0,Ft_2,F,17_R,AACTATTGCGGCTGCAGAGC,20,55.62812077499774,5.3553449355877305,55.00000000000001,2,0.0,R,S6,A0706,Ba,,3
47282,17_F,AGTTGGTGATAGAGTAATCGA,17,21,47.711890833511525,2.5608850058984918,38.095238095238095,2,0.0,Ft_2,F,17_R,AACTATTGCGGCTGCAGAGC,20,55.62812077499774,5.3553449355877305,55.00000000000001,2,0.0,R,S5,A0615,Ba,,3
47194,17_F,AGTTGGTGATAGAGTAATCGA,17,21,47.711890833511525,2.3452970103023745,38.095238095238095,2,0.0,Ft_2_V2,F,17_R,AACTATTGCGGCTGCAGAGC,20,55.62812077499774,5.570932931183847,55.00000000000001,2,0.0,R,S144,BA-BaBTSeqBa007P2--xx-xxx-xxxx-021-SF,Ba,,175
47442,17_F,TGATAGTGAGCAGGCGCCAAT,17,21,56.273676895493224,5.1074652408091135,52.38095238095239,2,0.0,Yp_1_V2,F,17_R,GTGGAATGTCAGGATGAATGAC,22,51.31827783181371,0.1520661771295906,45.45454545454545,2,0.0,R,S5,A0615,Ba,,3
47354,17_F,AGTTGGTGATAGAGTAATCGA,17,21,47.711890833511525,2.5608850058984918,38.095238095238095,2,0.0,Ft_2,F,17_R,AACTATTGCGGCTGCAGAGC,20,55.62812077499774,5.3553449355877305,55.00000000000001,2,0.0,R,S144,BA-BaBTSeqBa007P2--xx-xxx-xxxx-021-SF,Ba,,175
45841,17_F,ATCCGGAAATTGCTATTAGAA,17,21,46.845342223199786,2.009034097442793,33.33333333333333,3,0.14285714285714285,Ba_2,F,17_R,TGAGCTGATGTTATACCAG,19,45.65984546063487,0.8235373348778694,42.105263157894726,2,0.0,R,S6,A0706,Ba,,3
45842,17_F,ATCCGGAAATTGCTATTAGAA,17,21,46.845342223199786,2.009034097442793,33.33333333333333,3,0.14285714285714285,Ba_2,F,17_R,TGAGCTGATGTTATACCAG,19,45.65984546063487,0.8235373348778694,42.105263157894726,2,0.0,R,S5,A0615,Ba,,3
45844,17_F,ATCCGGAAATTGCTATTAGAA,17,21,46.845342223199786,2.009034097442793,33.33333333333333,3,0.14285714285714285,Ba_2,F,17_R,TGAGCTGATGTTATACCAG,19,45.65984546063487,0.8235373348778694,42.105263157894726,2,0.0,R,S2,A0330,Ba,,5
45843,17_F,ATCCGGAAATTGCTATTAGAA,17,21,46.845342223199786,2.009034097442793,33.33333333333333,3,0.14285714285714285,Ba_2,F,17_R,TGAGCTGATGTTATACCAG,19,45.65984546063487,0.8235373348778694,42.105263157894726,2,0.0,R,S4,A0605,Ba,,2329
46004,17_F,ATCCGGAAATTGCTATTAGAA,17,21,46.845342223199786,2.009034097442793,33.33333333333333,3,0.14285714285714285,Ba_3,F,17_R,TGAGCTGATGTTATACCAG,19,45.65984546063487,0.8235373348778694,42.105263157894726,2,0.0,R,S2,A0330,Ba,,5
46003,17_F,ATCCGGAAATTGCTATTAGAA,17,21,46.845342223199786,2.009034097442793,33.33333333333333,3,0.14285714285714285,Ba_3,F,17_R,TGAGCTGATGTTATACCAG,19,45.65984546063487,0.8235373348778694,42.105263157894726,2,0.0,R,S4,A0605,Ba,,2329
46002,17_F,ATCCGGAAATTGCTATTAGAA,17,21,46.845342223199786,2.009034097442793,33.33333333333333,3,0.14285714285714285,Ba_3,F,17_R,TGAGCTGATGTTATACCAG,19,45.65984546063487,0.8235373348778694,42.105263157894726,2,0.0,R,S5,A0615,Ba,,3
46001,17_F,ATCCGGAAATTGCTATTAGAA,17,21,46.845342223199786,2.009034097442793,33.33333333333333,3,0.14285714285714285,Ba_3,F,17_R,TGAGCTGATGTTATACCAG,19,45.65984546063487,0.8235373348778694,42.105263157894726,2,0.0,R,S6,A0706,Ba,,3
45914,17_F,ATCCGGAAATTGCTATTAGAA,17,21,46.845342223199786,2.009034097442793,33.33333333333333,3,0.14285714285714285,Ba_2,F,17_R,TGAGCTGATGTTATACCAG,19,45.65984546063487,0.8235373348778694,42.105263157894726,2,0.0,R,S144,BA-BaBTSeqBa007P2--xx-xxx-xxxx-021-SF,Ba,,175
47834,17_F,CAATCCTCACAACGACCTC,17,19,50.02579338766941,1.9714368328149805,52.631578947368425,2,0.0,Yp_2,F,17_R,GCTTGCTGGTCACTGTTTT,19,50.959079872396224,1.0381503480881733,47.368421052631575,4,0.21052631578947367,R,S144,BA-BaBTSeqBa007P2--xx-xxx-xxxx-021-SF,Ba,,175
47761,17_F,CAATCCTCACAACGACCTC,17,19,50.02579338766941,1.9714368328149805,52.631578947368425,2,0.0,Yp_2,F,17_R,GCTTGCTGGTCACTGTTTT,19,50.959079872396224,1.0381503480881733,47.368421052631575,4,0.21052631578947367,R,S6,A0706,Ba,,3
47762,17_F,CAATCCTCACAACGACCTC,17,19,50.02579338766941,1.9714368328149805,52.631578947368425,2,0.0,Yp_2,F,17_R,GCTTGCTGGTCACTGTTTT,19,50.959079872396224,1.0381503480881733,47.368421052631575,4,0.21052631578947367,R,S5,A0615,Ba,,3
47763,17_F,CAATCCTCACAACGACCTC,17,19,50.02579338766941,1.9714368328149805,52.631578947368425,2,0.0,Yp_2,F,17_R,GCTTGCTGGTCACTGTTTT,19,50.959079872396224,1.0381503480881733,47.368421052631575,4,0.21052631578947367,R,S4,A0605,Ba,,2329
47764,17_F,CAATCCTCACAACGACCTC,17,19,50.02579338766941,1.9714368328149805,52.631578947368425,2,0.0,Yp_2,F,17_R,GCTTGCTGGTCACTGTTTT,19,50.959079872396224,1.0381503480881733,47.368421052631575,4,0.21052631578947367,R,S2,A0330,Ba,,5
45754,17_F,ATCCGGAAATTGCTATTAGAA,17,21,46.845342223199786,2.009034097442793,33.33333333333333,3,0.14285714285714285,Ba_1,F,17_R,TGAGCTGATGTTATACCAG,19,45.65984546063487,0.8235373348778694,42.105263157894726,2,0.0,R,S144,BA-BaBTSeqBa007P2--xx-xxx-xxxx-021-SF,Ba,,175
45681,17_F,ATCCGGAAATTGCTATTAGAA,17,21,46.845342223199786,2.009034097442793,33.33333333333333,3,0.14285714285714285,Ba_1,F,17_R,TGAGCTGATGTTATACCAG,19,45.65984546063487,0.8235373348778694,42.105263157894726,2,0.0,R,S6,A0706,Ba,,3
45682,17_F,ATCCGGAAATTGCTATTAGAA,17,21,46.845342223199786,2.009034097442793,33.33333333333333,3,0.14285714285714285,Ba_1,F,17_R,TGAGCTGATGTTATACCAG,19,45.65984546063487,0.8235373348778694,42.105263157894726,2,0.0,R,S5,A0615,Ba,,3
45683,17_F,ATCCGGAAATTGCTATTAGAA,17,21,46.845342223199786,2.009034097442793,33.33333333333333,3,0.14285714285714285,Ba_1,F,17_R,TGAGCTGATGTTATACCAG,19,45.65984546063487,0.8235373348778694,42.105263157894726,2,0.0,R,S4,A0605,Ba,,2329
45684,17_F,ATCCGGAAATTGCTATTAGAA,17,21,46.845342223199786,2.009034097442793,33.33333333333333,3,0.14285714285714285,Ba_1,F,17_R,TGAGCTGATGTTATACCAG,19,45.65984546063487,0.8235373348778694,42.105263157894726,2,0.0,R,S2,A0330,Ba,,5
46394,17_F,ATCCGGAAATTGCTATTAGAA,17,21,46.845342223199786,0.3728247760865813,33.33333333333333,3,0.14285714285714285,Ba_5_V35,F,17_R,TGAGCTGATGTTATACCAG,19,45.65984546063487,0.8126719864783425,42.105263157894726,2,0.0,R,S144,BA-BaBTSeqBa007P2--xx-xxx-xxxx-021-SF,Ba,,175
46322,17_F,ATCCGGAAATTGCTATTAGAA,17,21,46.845342223199786,0.3728247760865813,33.33333333333333,3,0.14285714285714285,Ba_5_V35,F,17_R,TGAGCTGATGTTATACCAG,19,45.65984546063487,0.8126719864783425,42.105263157894726,2,0.0,R,S5,A0615,Ba,,3
46323,17_F,ATCCGGAAATTGCTATTAGAA,17,21,46.845342223199786,0.3728247760865813,33.33333333333333,3,0.14285714285714285,Ba_5_V35,F,17_R,TGAGCTGATGTTATACCAG,19,45.65984546063487,0.8126719864783425,42.105263157894726,2,0.0,R,S4,A0605,Ba,,2329
46324,17_F,ATCCGGAAATTGCTATTAGAA,17,21,46.845342223199786,0.3728247760865813,33.33333333333333,3,0.14285714285714285,Ba_5_V35,F,17_R,TGAGCTGATGTTATACCAG,19,45.65984546063487,0.8126719864783425,42.105263157894726,2,0.0,R,S2,A0330,Ba,,5
46321,17_F,ATCCGGAAATTGCTATTAGAA,17,21,46.845342223199786,0.3728247760865813,33.33333333333333,3,0.14285714285714285,Ba_5_V35,F,17_R,TGAGCTGATGTTATACCAG,19,45.65984546063487,0.8126719864783425,42.105263157894726,2,0.0,R,S6,A0706,Ba,,3
46554,17_F,ATCCGGAAATTGCTATTAGAA,17,21,46.845342223199786,0.5431604836139029,33.33333333333333,3,0.14285714285714285,Ba_5_V3,F,17_R,TGAGCTGATGTTATACCAG,19,45.65984546063487,0.6423362789510207,42.105263157894726,2,0.0,R,S144,BA-BaBTSeqBa007P2--xx-xxx-xxxx-021-SF,Ba,,175
46484,17_F,ATCCGGAAATTGCTATTAGAA,17,21,46.845342223199786,0.5431604836139029,33.33333333333333,3,0.14285714285714285,Ba_5_V3,F,17_R,TGAGCTGATGTTATACCAG,19,45.65984546063487,0.6423362789510207,42.105263157894726,2,0.0,R,S2,A0330,Ba,,5
46483,17_F,ATCCGGAAATTGCTATTAGAA,17,21,46.845342223199786,0.5431604836139029,33.33333333333333,3,0.14285714285714285,Ba_5_V3,F,17_R,TGAGCTGATGTTATACCAG,19,45.65984546063487,0.6423362789510207,42.105263157894726,2,0.0,R,S4,A0605,Ba,,2329
46482,17_F,ATCCGGAAATTGCTATTAGAA,17,21,46.845342223199786,0.5431604836139029,33.33333333333333,3,0.14285714285714285,Ba_5_V3,F,17_R,TGAGCTGATGTTATACCAG,19,45.65984546063487,0.6423362789510207,42.105263157894726,2,0.0,R,S5,A0615,Ba,,3
46481,17_F,ATCCGGAAATTGCTATTAGAA,17,21,46.845342223199786,0.5431604836139029,33.33333333333333,3,0.14285714285714285,Ba_5_V3,F,17_R,TGAGCTGATGTTATACCAG,19,45.65984546063487,0.6423362789510207,42.105263157894726,2,0.0,R,S6,A0706,Ba,,3
46164,17_F,ATCCGGAAATTGCTATTAGAA,17,21,46.845342223199786,0.5431604836139029,33.33333333333333,3,0.14285714285714285,Ba_4,F,17_R,TGAGCTGATGTTATACCAG,19,45.65984546063487,0.6423362789510207,42.105263157894726,2,0.0,R,S2,A0330,Ba,,5
46163,17_F,ATCCGGAAATTGCTATTAGAA,17,21,46.845342223199786,0.5431604836139029,33.33333333333333,3,0.14285714285714285,Ba_4,F,17_R,TGAGCTGATGTTATACCAG,19,45.65984546063487,0.6423362789510207,42.105263157894726,2,0.0,R,S4,A0605,Ba,,2329
46162,17_F,ATCCGGAAATTGCTATTAGAA,17,21,46.845342223199786,0.5431604836139029,33.33333333333333,3,0.14285714285714285,Ba_4,F,17_R,TGAGCTGATGTTATACCAG,19,45.65984546063487,0.6423362789510207,42.105263157894726,2,0.0,R,S5,A0615,Ba,,3
46161,17_F,ATCCGGAAATTGCTATTAGAA,17,21,46.845342223199786,0.5431604836139029,33.33333333333333,3,0.14285714285714285,Ba_4,F,17_R,TGAGCTGATGTTATACCAG,19,45.65984546063487,0.6423362789510207,42.105263157894726,2,0.0,R,S6,A0706,Ba,,3
46074,17_F,ATCCGGAAATTGCTATTAGAA,17,21,46.845342223199786,2.009034097442793,33.33333333333333,3,0.14285714285714285,Ba_3,F,17_R,TGAGCTGATGTTATACCAG,19,45.65984546063487,0.8235373348778694,42.105263157894726,2,0.0,R,S144,BA-BaBTSeqBa007P2--xx-xxx-xxxx-021-SF,Ba,,175
46234,17_F,ATCCGGAAATTGCTATTAGAA,17,21,46.845342223199786,0.5431604836139029,33.33333333333333,3,0.14285714285714285,Ba_4,F,17_R,TGAGCTGATGTTATACCAG,19,45.65984546063487,0.6423362789510207,42.105263157894726,2,0.0,R,S144,BA-BaBTSeqBa007P2--xx-xxx-xxxx-021-SF,Ba,,175
46962,17_F,CACTATCTAATCCTACATCTCT,17,22,45.579308664735144,3.2769829354888667,36.36363636363637,2,0.0,Ft_1,F,17_R,ACCATTATATGTCACATCTGGA,22,48.44204253038816,0.4142490698358543,36.36363636363637,2,0.0,R,S5,A0615,Ba,,3
46963,17_F,CACTATCTAATCCTACATCTCT,17,22,45.579308664735144,3.2769829354888667,36.36363636363637,2,0.0,Ft_1,F,17_R,ACCATTATATGTCACATCTGGA,22,48.44204253038816,0.4142490698358543,36.36363636363637,2,0.0,R,S4,A0605,Ba,,2329
46964,17_F,CACTATCTAATCCTACATCTCT,17,22,45.579308664735144,3.2769829354888667,36.36363636363637,2,0.0,Ft_1,F,17_R,ACCATTATATGTCACATCTGGA,22,48.44204253038816,0.4142490698358543,36.36363636363637,2,0.0,R,S2,A0330,Ba,,5
46961,17_F,CACTATCTAATCCTACATCTCT,17,22,45.579308664735144,3.2769829354888667,36.36363636363637,2,0.0,Ft_1,F,17_R,ACCATTATATGTCACATCTGGA,22,48.44204253038816,0.4142490698358543,36.36363636363637,2,0.0,R,S6,A0706,Ba,,3
47124,17_F,AGTTGGTGATAGAGTAATCGA,17,21,47.711890833511525,2.3452970103023745,38.095238095238095,2,0.0,Ft_2_V2,F,17_R,AACTATTGCGGCTGCAGAGC,20,55.62812077499774,5.570932931183847,55.00000000000001,2,0.0,R,S2,A0330,Ba,,5
47123,17_F,AGTTGGTGATAGAGTAATCGA,17,21,47.711890833511525,2.3452970103023745,38.095238095238095,2,0.0,Ft_2_V2,F,17_R,AACTATTGCGGCTGCAGAGC,20,55.62812077499774,5.570932931183847,55.00000000000001,2,0.0,R,S4,A0605,Ba,,2329
47122,17_F,AGTTGGTGATAGAGTAATCGA,17,21,47.711890833511525,2.3452970103023745,38.095238095238095,2,0.0,Ft_2_V2,F,17_R,AACTATTGCGGCTGCAGAGC,20,55.62812077499774,5.570932931183847,55.00000000000001,2,0.0,R,S5,A0615,Ba,,3
47121,17_F,AGTTGGTGATAGAGTAATCGA,17,21,47.711890833511525,2.3452970103023745,38.095238095238095,2,0.0,Ft_2_V2,F,17_R,AACTATTGCGGCTGCAGAGC,20,55.62812077499774,5.570932931183847,55.00000000000001,2,0.0,R,S6,A0706,Ba,,3
47034,17_F,CACTATCTAATCCTACATCTCT,17,22,45.579308664735144,3.2769829354888667,36.36363636363637,2,0.0,Ft_1,F,17_R,ACCATTATATGTCACATCTGGA,22,48.44204253038816,0.4142490698358543,36.36363636363637,2,0.0,R,S144,BA-BaBTSeqBa007P2--xx-xxx-xxxx-021-SF,Ba,,175
46714,17_F,ATCCGGAAATTGCTATTAGAA,17,21,46.845342223199786,0.3977214023158169,33.33333333333333,3,0.14285714285714285,Ba_6_V4,F,17_R,TGAGCTGATGTTATACCAG,19,45.65984546063487,1.5832181648807406,42.105263157894726,2,0.0,R,S144,BA-BaBTSeqBa007P2--xx-xxx-xxxx-021-SF,Ba,,175
46641,17_F,ATCCGGAAATTGCTATTAGAA,17,21,46.845342223199786,0.3977214023158169,33.33333333333333,3,0.14285714285714285,Ba_6_V4,F,17_R,TGAGCTGATGTTATACCAG,19,45.65984546063487,1.5832181648807406,42.105263157894726,2,0.0,R,S6,A0706,Ba,,3
46642,17_F,ATCCGGAAATTGCTATTAGAA,17,21,46.845342223199786,0.3977214023158169,33.33333333333333,3,0.14285714285714285,Ba_6_V4,F,17_R,TGAGCTGATGTTATACCAG,19,45.65984546063487,1.5832181648807406,42.105263157894726,2,0.0,R,S5,A0615,Ba,,3
46643,17_F,ATCCGGAAATTGCTATTAGAA,17,21,46.845342223199786,0.3977214023158169,33.33333333333333,3,0.14285714285714285,Ba_6_V4,F,17_R,TGAGCTGATGTTATACCAG,19,45.65984546063487,1.5832181648807406,42.105263157894726,2,0.0,R,S4,A0605,Ba,,2329
46644,17_F,ATCCGGAAATTGCTATTAGAA,17,21,46.845342223199786,0.3977214023158169,33.33333333333333,3,0.14285714285714285,Ba_6_V4,F,17_R,TGAGCTGATGTTATACCAG,19,45.65984546063487,1.5832181648807406,42.105263157894726,2,0.0,R,S2,A0330,Ba,,5
46874,17_F,ATCCGGAAATTGCTATTAGAA,17,21,46.845342223199786,0.36978143754281945,33.33333333333333,3,0.14285714285714285,Ba_V45,F,17_R,TGAGCTGATGTTATACCAG,19,45.65984546063487,1.5552782001077432,42.105263157894726,2,0.0,R,S144,BA-BaBTSeqBa007P2--xx-xxx-xxxx-021-SF,Ba,,175